----- GAMESS execution script 'rungms' -----
This job is running on host bach.ad64.riken.go.jp
under operating system Darwin at 2019年 1月15日 火曜日 16時04分03秒 JST
Available scratch disk space (Kbyte units) at beginning of the job is
Filesystem   1024-blocks       Used Available Capacity iused      ifree %iused  Mounted on
/dev/disk2s2  1953178672 1190178820 762999852    61%  981757 4293985522    0%   /Volumes/Users
GAMESS temporary binary files will be written to ./
GAMESS supplementary output files will be written to ./
Copying input file _N2.DZ.fullCI.gamess.inp to your run's scratch directory...
cp _N2.DZ.fullCI.gamess.inp .//_N2.DZ.fullCI.gamess.F05
unset echo
/Volumes/Users/maho/bin/gamess//ddikick.x /Volumes/Users/maho/bin/gamess//gamess.00.x _N2.DZ.fullCI.gamess -ddi 1 1 bach.ad64.riken.go.jp -scr ./

 Distributed Data Interface kickoff program.
 Initiating 1 compute processes on 1 nodes to run the following command:
 /Volumes/Users/maho/bin/gamess//gamess.00.x _N2.DZ.fullCI.gamess 

          ******************************************************
          *         GAMESS VERSION = 18 AUG 2016 (R1)          *
          *             FROM IOWA STATE UNIVERSITY             *
          * M.W.SCHMIDT, K.K.BALDRIDGE, J.A.BOATZ, S.T.ELBERT, *
          *   M.S.GORDON, J.H.JENSEN, S.KOSEKI, N.MATSUNAGA,   *
          *          K.A.NGUYEN, S.J.SU, T.L.WINDUS,           *
          *       TOGETHER WITH M.DUPUIS, J.A.MONTGOMERY       *
          *         J.COMPUT.CHEM.  14, 1347-1363(1993)        *
          **************** 64 BIT APPLE VERSION ****************

  SINCE 1993, STUDENTS AND POSTDOCS WORKING AT IOWA STATE UNIVERSITY
  AND ALSO IN THEIR VARIOUS JOBS AFTER LEAVING ISU HAVE MADE IMPORTANT
  CONTRIBUTIONS TO THE CODE:
     IVANA ADAMOVIC, CHRISTINE AIKENS, YURI ALEXEEV, POOJA ARORA,
     ANDREY ASADCHEV, ROB BELL, PRADIPTA BANDYOPADHYAY, JONATHAN BENTZ,
     BRETT BODE, KURT BRORSEN, CALEB CARLIN, GALINA CHABAN, WEI CHEN,
     CHEOL HO CHOI, PAUL DAY, ALBERT DEFUSCO, NUWAN DESILVA, TIM DUDLEY,
     DMITRI FEDOROV, GRAHAM FLETCHER, MARK FREITAG, KURT GLAESEMANN,
     DAN KEMP, GRANT MERRILL, NORIYUKI MINEZAWA, JONATHAN MULLIN,
     TAKESHI NAGATA, SEAN NEDD, HEATHER NETZLOFF, BOSILJKA NJEGIC, RYAN OLSON,
     MIKE PAK, SPENCER PRUITT, LUKE ROSKOP, JIM SHOEMAKER, LYUDMILA SLIPCHENKO,
     TONY SMITH, SAROM SOK LEANG, JIE SONG, TETSUYA TAKETSUGU, SIMON WEBB,
     PENG XU, SOOHAENG YOO, FEDERICO ZAHARIEV

  ADDITIONAL CODE HAS BEEN PROVIDED BY COLLABORATORS IN OTHER GROUPS:
     IOWA STATE UNIVERSITY:
          JOE IVANIC, AARON WEST, LAIMUTIS BYTAUTAS, KLAUS RUEDENBERG
     UNIVERSITY OF TOKYO: KIMIHIKO HIRAO, TAKAHITO NAKAJIMA,
          TAKAO TSUNEDA, MUNEAKI KAMIYA, SUSUMU YANAGISAWA,
          KIYOSHI YAGI, MAHITO CHIBA, SEIKEN TOKURA, NAOAKI KAWAKAMI
     UNIVERSITY OF AARHUS: FRANK JENSEN
     UNIVERSITY OF IOWA: VISVALDAS KAIRYS, HUI LI
     NATIONAL INST. OF STANDARDS AND TECHNOLOGY: WALT STEVENS, DAVID GARMER
     UNIVERSITY OF PISA: BENEDETTA MENNUCCI, JACOPO TOMASI
     UNIVERSITY OF MEMPHIS: HENRY KURTZ, PRAKASHAN KORAMBATH
     UNIVERSITY OF ALBERTA: TOBY ZENG, MARIUSZ KLOBUKOWSKI
     UNIVERSITY OF NEW ENGLAND: MARK SPACKMAN
     MIE UNIVERSITY: HIROAKI UMEDA
     NAT. INST. OF ADVANCED INDUSTRIAL SCIENCE AND TECHNOLOGY: KAZUO KITAURA
     MICHIGAN STATE UNIVERSITY:
          KAROL KOWALSKI, MARTA WLOCH, JEFFREY GOUR, JESSE LUTZ,
          WEI LI, PIOTR PIECUCH
     UNIVERSITY OF SILESIA: MONIKA MUSIAL, STANISLAW KUCHARSKI
     FACULTES UNIVERSITAIRES NOTRE-DAME DE LA PAIX:
          OLIVIER QUINET, BENOIT CHAMPAGNE
     UNIVERSITY OF CALIFORNIA - SANTA BARBARA: BERNARD KIRTMAN
     INSTITUTE FOR MOLECULAR SCIENCE:
          KAZUYA ISHIMURA, MICHIO KATOUDA, AND SHIGERU NAGASE
     UNIVERSITY OF NOTRE DAME: ANNA POMOGAEVA, DAN CHIPMAN
     KYUSHU UNIVERSITY:
          HARUYUKI NAKANO,
          FENG LONG GU, JACEK KORCHOWIEC, MARCIN MAKOWSKI, AND YURIKO AOKI,
          HIROTOSHI MORI AND EISAKU MIYOSHI
     PENNSYLVANIA STATE UNIVERSITY:
          TZVETELIN IORDANOV, CHET SWALINA, JONATHAN SKONE,
          SHARON HAMMES-SCHIFFER
     WASEDA UNIVERSITY:
          MASATO KOBAYASHI, TOMOKO AKAMA, TSUGUKI TOUMA,
          TAKESHI YOSHIKAWA, YASUHIRO IKABATA, JUNJI SEINO,
          YUYA NAKAJIMA, HIROMI NAKAI
     NANJING UNIVERSITY: SHUHUA LI
     UNIVERSITY OF NEBRASKA:
          PEIFENG SU, DEJUN SI, NANDUN THELLAMUREGE, YALI WANG, HUI LI
     UNIVERSITY OF ZURICH: ROBERTO PEVERATI, KIM BALDRIDGE
     N. COPERNICUS UNIVERSITY AND JACKSON STATE UNIVERSITY:
          MARIA BARYSZ
     UNIVERSITY OF COPENHAGEN: Jimmy Kromann, CASPER STEINMANN
     TOKYO INSTITUTE OF TECHNOLOGY: HIROYA NAKATA
     NAGOYA UNIVERSITY: YOSHIO NISHIMOTO, STEPHAN IRLE
     MOSCOW STATE UNIVERSITY: VLADIMIR MIRONOV

 EXECUTION OF GAMESS BEGUN Tue Jan 15 16:04:03 2019

            ECHO OF THE FIRST FEW INPUT CARDS -
 INPUT CARD> $CONTRL MULT=1 SCFTYP=RHF CITYP=GUGA $END                                      
 INPUT CARD> $GUESS GUESS=HUCKEL $END                                                       
 INPUT CARD> $SYSTEM MWORDS=300 $END                                                        
 INPUT CARD> $CIDRT GROUP=C2V IEXCIT=14 NDOC=7 NFZC=0 NVAL=13 $END                          
 INPUT CARD> $DATA                                                                          
 INPUT CARD>N2...HF...Double-zeta basis                                                     
 INPUT CARD>Cnv   2                                                                         
 INPUT CARD>                                                                                
 INPUT CARD>N     7.0    0.0      0.0     0.0                                               
 INPUT CARD>S   6                                                                           
 INPUT CARD>  1   5909.4400000              0.0020040                                       
 INPUT CARD>  2    887.4510000              0.0153100                                       
 INPUT CARD>  3    204.7490000              0.0742930                                       
 INPUT CARD>  4     59.8376000              0.2533640                                       
 INPUT CARD>  5     19.9981000              0.6005760                                       
 INPUT CARD>  6      2.6860000              0.2451110                                       
 INPUT CARD>S   1                                                                           
 INPUT CARD>  1      7.1927000              1.0000000                                       
 INPUT CARD>S   1                                                                           
 INPUT CARD>  1      0.7000000              1.0000000                                       
 INPUT CARD>S   1                                                                           
 INPUT CARD>  1      0.2133000              1.0000000                                       
 INPUT CARD>P   4                                                                           
 INPUT CARD>  1     26.7860000              0.0182570                                       
 INPUT CARD>  2      5.9564000              0.1164070                                       
 INPUT CARD>  3      1.7074000              0.3901110                                       
 INPUT CARD>  4      0.5314000              0.6372210                                       
 INPUT CARD>P   1                                                                           
 INPUT CARD>  1      0.1654000              1.0000000                                       
 INPUT CARD>                                                                                
 INPUT CARD>N     7.0    0.0      0.0     1.0000                                            
 INPUT CARD>S   6                                                                           
 INPUT CARD>  1   5909.4400000              0.0020040                                       
 INPUT CARD>  2    887.4510000              0.0153100                                       
 INPUT CARD>  3    204.7490000              0.0742930                                       
 INPUT CARD>  4     59.8376000              0.2533640                                       
 INPUT CARD>  5     19.9981000              0.6005760                                       
 INPUT CARD>  6      2.6860000              0.2451110                                       
 INPUT CARD>S   1                                                                           
 INPUT CARD>  1      7.1927000              1.0000000                                       
 INPUT CARD>S   1                                                                           
 INPUT CARD>  1      0.7000000              1.0000000                                       
 INPUT CARD>S   1                                                                           
 INPUT CARD>  1      0.2133000              1.0000000                                       
 INPUT CARD>P   4                                                                           
 INPUT CARD>  1     26.7860000              0.0182570                                       
 INPUT CARD>  2      5.9564000              0.1164070                                       
 INPUT CARD>  3      1.7074000              0.3901110                                       
 INPUT CARD>  4      0.5314000              0.6372210                                       
 INPUT CARD>P   1                                                                           
  300000000 WORDS OF MEMORY AVAILABLE


     RUN TITLE
     ---------
 N2...HF...Double-zeta basis                                                     

 THE POINT GROUP OF THE MOLECULE IS CNV     
 THE ORDER OF THE PRINCIPAL AXIS IS     2

 ATOM      ATOMIC                      COORDINATES (BOHR)
           CHARGE         X                   Y                   Z
 N           7.0     0.0000000000        0.0000000000        0.0000000000
 N           7.0     0.0000000000        0.0000000000        1.8897259877

          INTERNUCLEAR DISTANCES (ANGS.)
          ------------------------------

                1 N          2 N     

   1 N       0.0000000    1.0000000 *
   2 N       1.0000000 *  0.0000000  

  * ... LESS THAN  3.000


     ATOMIC BASIS SET
     ----------------
 THE CONTRACTED PRIMITIVE FUNCTIONS HAVE BEEN UNNORMALIZED
 THE CONTRACTED BASIS FUNCTIONS ARE NOW NORMALIZED TO UNITY

  SHELL TYPE  PRIMITIVE        EXPONENT          CONTRACTION COEFFICIENT(S)

 N         

      1   S       1          5909.4400000    0.002004000152
      1   S       2           887.4510000    0.015310001158
      1   S       3           204.7490000    0.074293005619
      1   S       4            59.8376000    0.253364019162
      1   S       5            19.9981000    0.600576045421
      1   S       6             2.6860000    0.245111018538

      2   S       7             7.1927000    1.000000000000

      3   S       8             0.7000000    1.000000000000

      4   S       9             0.2133000    1.000000000000

      5   P      10            26.7860000    0.018256992512
      5   P      11             5.9564000    0.116406952258
      5   P      12             1.7074000    0.390110840005
      5   P      13             0.5314000    0.637220738658

      6   P      14             0.1654000    1.000000000000

 N         

      7   S      15          5909.4400000    0.002004000152
      7   S      16           887.4510000    0.015310001158
      7   S      17           204.7490000    0.074293005619
      7   S      18            59.8376000    0.253364019162
      7   S      19            19.9981000    0.600576045421
      7   S      20             2.6860000    0.245111018538

      8   S      21             7.1927000    1.000000000000

      9   S      22             0.7000000    1.000000000000

     10   S      23             0.2133000    1.000000000000

     11   P      24            26.7860000    0.018256992512
     11   P      25             5.9564000    0.116406952258
     11   P      26             1.7074000    0.390110840005
     11   P      27             0.5314000    0.637220738658

     12   P      28             0.1654000    1.000000000000

 TOTAL NUMBER OF BASIS SET SHELLS             =   12
 NUMBER OF CARTESIAN GAUSSIAN BASIS FUNCTIONS =   20
 NUMBER OF ELECTRONS                          =   14
 CHARGE OF MOLECULE                           =    0
 SPIN MULTIPLICITY                            =    1
 NUMBER OF OCCUPIED ORBITALS (ALPHA)          =    7
 NUMBER OF OCCUPIED ORBITALS (BETA )          =    7
 TOTAL NUMBER OF ATOMS                        =    2
 THE NUCLEAR REPULSION ENERGY IS       25.9296852128

 THIS MOLECULE IS RECOGNIZED AS BEING LINEAR,
 ORBITAL LZ DEGENERACY TOLERANCE ETOLLZ= 1.00E-06

     $CONTRL OPTIONS
     ---------------
 SCFTYP=RHF          RUNTYP=ENERGY       EXETYP=RUN     
 MPLEVL=       0     CITYP =GUGA         CCTYP =NONE         VBTYP =NONE    
 DFTTYP=NONE         TDDFT =NONE    
 MULT  =       1     ICHARG=       0     NZVAR =       0     COORD =UNIQUE  
 PP    =NONE         RELWFN=NONE         LOCAL =NONE         NUMGRD=       F
 ISPHER=      -1     NOSYM =       0     MAXIT =      30     UNITS =ANGS    
 PLTORB=       F     MOLPLT=       F     AIMPAC=       F     FRIEND=        
 NPRINT=       7     IREST =       0     GEOM  =INPUT   
 NORMF =       0     NORMP =       0     ITOL  =      20     ICUT  =       9
 INTTYP=BEST         GRDTYP=BEST         QMTTOL= 1.0E-06

     $SYSTEM OPTIONS
     ---------------
  REPLICATED MEMORY=   300000000 WORDS (ON EVERY NODE).
 DISTRIBUTED MEMDDI=           0 MILLION WORDS IN AGGREGATE,
 MEMDDI DISTRIBUTED OVER   1 PROCESSORS IS           0 WORDS/PROCESSOR.
 TOTAL MEMORY REQUESTED ON EACH PROCESSOR=   300000000 WORDS.
 TIMLIM=      525600.00 MINUTES, OR     365.0 DAYS.
 PARALL= F  BALTYP=  DLB     KDIAG=    0  COREFL= F
 MXSEQ2=     300 MXSEQ3=     150  mem10=         0

          ----------------
          PROPERTIES INPUT
          ----------------

     MOMENTS            FIELD           POTENTIAL          DENSITY
 IEMOM =       1   IEFLD =       0   IEPOT =       0   IEDEN =       0
 WHERE =COMASS     WHERE =NUCLEI     WHERE =NUCLEI     WHERE =NUCLEI  
 OUTPUT=BOTH       OUTPUT=BOTH       OUTPUT=BOTH       OUTPUT=BOTH    
 IEMINT=       0   IEFINT=       0                     IEDINT=       0
                                                       MORB  =       0
          EXTRAPOLATION IN EFFECT
          SOSCF IN EFFECT
 ORBITAL PRINTING OPTION: NPREO=     1    20     2     1

     -------------------------------
     INTEGRAL TRANSFORMATION OPTIONS
     -------------------------------
     NWORD  =            0
     CUTOFF = 1.0E-09     MPTRAN =       0
     DIRTRF =       F     AOINTS =DUP     

          ----------------------
          INTEGRAL INPUT OPTIONS
          ----------------------
 NOPK  =       1 NORDER=       0 SCHWRZ=       F

     ------------------------------------------
     THE POINT GROUP IS CNV, NAXIS= 2, ORDER= 4
     ------------------------------------------

     DIMENSIONS OF THE SYMMETRY SUBSPACES ARE
 A1  =   12     A2  =    0     B1  =    4     B2  =    4

 ..... DONE SETTING UP THE RUN .....
 STEP CPU TIME =     0.01 TOTAL CPU TIME =        0.0 (    0.0 MIN)
 TOTAL WALL CLOCK TIME=        0.0 SECONDS, CPU UTILIZATION IS  50.00%

          ********************
          1 ELECTRON INTEGRALS
          ********************
 ...... END OF ONE-ELECTRON INTEGRALS ......
 STEP CPU TIME =     0.00 TOTAL CPU TIME =        0.0 (    0.0 MIN)
 TOTAL WALL CLOCK TIME=        0.0 SECONDS, CPU UTILIZATION IS  50.00%

          -------------
          GUESS OPTIONS
          -------------
          GUESS =HUCKEL            NORB  =       0          NORDER=       0
          MIX   =       F          PRTMO =       F          PUNMO =       F
          TOLZ  = 1.0E-08          TOLE  = 1.0E-05
          SYMDEN=       F          PURIFY=       F

 INITIAL GUESS ORBITALS GENERATED BY HUCKEL   ROUTINE.
 HUCKEL GUESS REQUIRES      4966 WORDS.

 SYMMETRIES FOR INITIAL GUESS ORBITALS FOLLOW.   BOTH SET(S).
     7 ORBITALS ARE OCCUPIED (    2 CORE ORBITALS).
     3=A1       4=B1       5=B2       6=A1       7=A1       8=B2       9=B1  
    10=A1      11=A1      12=A1      13=A1      14=A1      15=A1      16=A1  
    17=B1  
 ...... END OF INITIAL ORBITAL SELECTION ......
 STEP CPU TIME =     0.01 TOTAL CPU TIME =        0.0 (    0.0 MIN)
 TOTAL WALL CLOCK TIME=        0.0 SECONDS, CPU UTILIZATION IS 100.00%

                    ----------------------
                    AO INTEGRAL TECHNOLOGY
                    ----------------------
     S,P,L SHELL ROTATED AXIS INTEGRALS, REPROGRAMMED BY
        KAZUYA ISHIMURA (IMS) AND JOSE SIERRA (SYNSTAR).
     S,P,D,L SHELL ROTATED AXIS INTEGRALS PROGRAMMED BY
        KAZUYA ISHIMURA (INSTITUTE FOR MOLECULAR SCIENCE).
     S,P,D,F,G SHELL TO TOTAL QUARTET ANGULAR MOMENTUM SUM 5,
        ERIC PROGRAM BY GRAHAM FLETCHER (ELORET AND NASA ADVANCED
        SUPERCOMPUTING DIVISION, AMES RESEARCH CENTER).
     S,P,D,F,G,L SHELL GENERAL RYS QUADRATURE PROGRAMMED BY
        MICHEL DUPUIS (PACIFIC NORTHWEST NATIONAL LABORATORY).

          --------------------
          2 ELECTRON INTEGRALS
          --------------------

 THE -PK- OPTION IS OFF, THE INTEGRALS ARE NOT IN SUPERMATRIX FORM.
 STORING   15000 INTEGRALS/RECORD ON DISK, USING 12 BYTES/INTEGRAL.
 TWO ELECTRON INTEGRAL EVALUATION REQUIRES   89434 WORDS OF MEMORY.
 II,JST,KST,LST =  1  1  1  1 NREC =         1 INTLOC =    1
 II,JST,KST,LST =  2  1  1  1 NREC =         1 INTLOC =    2
 II,JST,KST,LST =  3  1  1  1 NREC =         1 INTLOC =    7
 II,JST,KST,LST =  4  1  1  1 NREC =         1 INTLOC =   22
 II,JST,KST,LST =  5  1  1  1 NREC =         1 INTLOC =   56
 II,JST,KST,LST =  6  1  1  1 NREC =         1 INTLOC =  125
 II,JST,KST,LST =  7  1  1  1 NREC =         1 INTLOC =  329
 II,JST,KST,LST =  8  1  1  1 NREC =         1 INTLOC =  600
 II,JST,KST,LST =  9  1  1  1 NREC =         1 INTLOC =  969
 II,JST,KST,LST = 10  1  1  1 NREC =         1 INTLOC = 1462
 II,JST,KST,LST = 11  1  1  1 NREC =         1 INTLOC = 2105
 II,JST,KST,LST = 12  1  1  1 NREC =         1 INTLOC = 3972
 TOTAL NUMBER OF NONZERO TWO-ELECTRON INTEGRALS =                6906
          1 INTEGRAL RECORDS WERE STORED ON DISK FILE  8.
  ...... END OF TWO-ELECTRON INTEGRALS .....
 STEP CPU TIME =     0.02 TOTAL CPU TIME =        0.0 (    0.0 MIN)
 TOTAL WALL CLOCK TIME=        0.0 SECONDS, CPU UTILIZATION IS 100.00%

          --------------------------
                 RHF SCF CALCULATION
          --------------------------

     NUCLEAR ENERGY =        25.9296852128
     MAXIT =   30     NPUNCH=    2
     EXTRAP=T  DAMP=F  SHIFT=F  RSTRCT=F  DIIS=F  DEM=F  SOSCF=T
     DENSITY MATRIX CONV=  1.00E-06
     SOSCF WILL OPTIMIZE      91 ORBITAL ROTATIONS, SOGTOL=   0.250
     MEMORY REQUIRED FOR RHF ITERS=     33444 WORDS.

 ITER EX DEM     TOTAL ENERGY        E CHANGE  DENSITY CHANGE     ORB. GRAD
   1  0  0     -108.5484624717  -108.5484624717   0.268972944   0.000000000
          ---------------START SECOND ORDER SCF---------------
   2  1  0     -108.8295404861    -0.2810780144   0.093302723   0.053077538
   3  2  0     -108.8379215534    -0.0083810673   0.020496934   0.008002806
   4  3  0     -108.8383080406    -0.0003864872   0.001747275   0.000689158
   5  4  0     -108.8383094499    -0.0000014093   0.000161035   0.000115893
   6  5  0     -108.8383094876    -0.0000000377   0.000008582   0.000007542
   7  6  0     -108.8383094879    -0.0000000003   0.000002483   0.000000932
   8  7  0     -108.8383094879    -0.0000000000   0.000000614   0.000000222
   9  8  0     -108.8383094879    -0.0000000000   0.000000048   0.000000029

          -----------------
          DENSITY CONVERGED
          -----------------
     TIME TO FORM FOCK OPERATORS=       0.0 SECONDS (       0.0 SEC/ITER)
     TIME TO SOLVE SCF EQUATIONS=       0.0 SECONDS (       0.0 SEC/ITER)

 FINAL RHF ENERGY IS     -108.8383094879 AFTER   9 ITERATIONS

 LZ VALUE ANALYSIS FOR THE MOS
 ----------------------------------------
 MO     1 (    1) HAS LZ(WEIGHT)= 0.00(100.0%) 
 MO     2 (    2) HAS LZ(WEIGHT)= 0.00(100.0%) 
 MO     3 (    3) HAS LZ(WEIGHT)= 0.00(100.0%) 
 MO     4 (    4) HAS LZ(WEIGHT)= 0.00(100.0%) 
 MO     5 (    5) HAS LZ(WEIGHT)=-1.00( 50.0%)  1.00( 50.0%) 
 MO     6 (    5) HAS LZ(WEIGHT)=-1.00( 50.0%)  1.00( 50.0%) 
 MO     7 (    6) HAS LZ(WEIGHT)= 0.00(100.0%) 
 MO     8 (    7) HAS LZ(WEIGHT)=-1.00( 50.0%)  1.00( 50.0%) 
 MO     9 (    7) HAS LZ(WEIGHT)=-1.00( 50.0%)  1.00( 50.0%) 
 MO    10 (    8) HAS LZ(WEIGHT)= 0.00(100.0%) 
 MO    11 (    9) HAS LZ(WEIGHT)= 0.00(100.0%) 
 MO    12 (   10) HAS LZ(WEIGHT)=-1.00( 50.0%)  1.00( 50.0%) 
 MO    13 (   10) HAS LZ(WEIGHT)=-1.00( 50.0%)  1.00( 50.0%) 
 MO    14 (   11) HAS LZ(WEIGHT)=-1.00( 50.0%)  1.00( 50.0%) 
 MO    15 (   11) HAS LZ(WEIGHT)=-1.00( 50.0%)  1.00( 50.0%) 
 MO    16 (   12) HAS LZ(WEIGHT)= 0.00(100.0%) 
 MO    17 (   13) HAS LZ(WEIGHT)= 0.00(100.0%) 
 MO    18 (   14) HAS LZ(WEIGHT)= 0.00(100.0%) 
 MO    19 (   15) HAS LZ(WEIGHT)= 0.00(100.0%) 
 MO    20 (   16) HAS LZ(WEIGHT)= 0.00(100.0%) 

          ------------
          EIGENVECTORS
          ------------

                      1          2          3          4          5
                  -15.7019   -15.6954    -1.6009    -0.7396    -0.6727
                     A1         A1         A1         A1         B2  
    1  N  1  S    0.419402   0.419844  -0.105294  -0.090818   0.000000
    2  N  1  S    0.315014   0.315475  -0.140990  -0.124876   0.000000
    3  N  1  S    0.002067   0.001429   0.389821   0.372275   0.000000
    4  N  1  S    0.000666   0.003948   0.146520   0.462425   0.000000
    5  N  1  X   -0.000000   0.000000  -0.000000  -0.000000   0.000000
    6  N  1  Y   -0.000000   0.000000  -0.000000  -0.000000   0.523657
    7  N  1  Z    0.002651   0.002565   0.278701  -0.249264   0.000000
    8  N  1  X   -0.000000   0.000000  -0.000000  -0.000000   0.000000
    9  N  1  Y   -0.000000   0.000000  -0.000000  -0.000000   0.138206
   10  N  1  Z   -0.001389   0.000701  -0.040480  -0.053234   0.000000
   11  N  2  S    0.419402  -0.419844  -0.105294   0.090818   0.000000
   12  N  2  S    0.315014  -0.315475  -0.140990   0.124876   0.000000
   13  N  2  S    0.002067  -0.001429   0.389821  -0.372275   0.000000
   14  N  2  S    0.000666  -0.003948   0.146520  -0.462425   0.000000
   15  N  2  X   -0.000000   0.000000  -0.000000  -0.000000   0.000000
   16  N  2  Y   -0.000000   0.000000  -0.000000  -0.000000   0.523657
   17  N  2  Z   -0.002651   0.002565  -0.278701  -0.249264   0.000000
   18  N  2  X   -0.000000   0.000000  -0.000000  -0.000000   0.000000
   19  N  2  Y   -0.000000   0.000000  -0.000000  -0.000000   0.138206
   20  N  2  Z    0.001389   0.000701   0.040480  -0.053234   0.000000

                      6          7          8          9         10
                   -0.6727    -0.6309     0.1957     0.1957     0.4189
                     B1         A1         B2         B1         A1  
    1  N  1  S    0.000000  -0.031707  -0.000000  -0.000000   0.041934
    2  N  1  S    0.000000  -0.042009  -0.000000  -0.000000   0.054020
    3  N  1  S    0.000000   0.099692  -0.000000  -0.000000  -0.024126
    4  N  1  S    0.000000   0.341272  -0.000000  -0.000000  -3.530286
    5  N  1  X    0.523657   0.000000  -0.000000  -0.491703   0.000000
    6  N  1  Y    0.000000   0.000000  -0.491703  -0.000000   0.000000
    7  N  1  Z    0.000000  -0.519706  -0.000000  -0.000000   0.050912
    8  N  1  X    0.138206   0.000000  -0.000000  -0.799781   0.000000
    9  N  1  Y    0.000000   0.000000  -0.799781  -0.000000   0.000000
   10  N  1  Z    0.000000  -0.079234  -0.000000  -0.000000  -1.992519
   11  N  2  S    0.000000  -0.031707  -0.000000  -0.000000  -0.041934
   12  N  2  S    0.000000  -0.042009  -0.000000  -0.000000  -0.054020
   13  N  2  S    0.000000   0.099692  -0.000000  -0.000000   0.024126
   14  N  2  S    0.000000   0.341272  -0.000000  -0.000000   3.530286
   15  N  2  X    0.523657   0.000000  -0.000000   0.491703   0.000000
   16  N  2  Y    0.000000   0.000000   0.491703  -0.000000   0.000000
   17  N  2  Z    0.000000   0.519706  -0.000000  -0.000000   0.050912
   18  N  2  X    0.138206   0.000000  -0.000000   0.799781   0.000000
   19  N  2  Y    0.000000   0.000000   0.799781  -0.000000   0.000000
   20  N  2  Z    0.000000   0.079234  -0.000000  -0.000000  -1.992519

                     11         12         13         14         15
                    0.5601     0.5762     0.5762     0.8047     0.8047
                     A1         B2         B1         B1         B2  
    1  N  1  S   -0.009218  -0.000000  -0.000000   0.000000   0.000000
    2  N  1  S   -0.018593  -0.000000  -0.000000   0.000000   0.000000
    3  N  1  S    0.228618  -0.000000  -0.000000   0.000000   0.000000
    4  N  1  S    0.158375  -0.000000  -0.000000   0.000000   0.000000
    5  N  1  X   -0.000000  -0.000000  -0.574802   0.769672   0.000000
    6  N  1  Y   -0.000000  -0.574802  -0.000000   0.000000   0.769672
    7  N  1  Z    0.344936  -0.000000  -0.000000   0.000000   0.000000
    8  N  1  X   -0.000000  -0.000000   0.643297  -1.345453   0.000000
    9  N  1  Y   -0.000000   0.643297  -0.000000   0.000000  -1.345453
   10  N  1  Z   -1.186494  -0.000000  -0.000000   0.000000   0.000000
   11  N  2  S   -0.009218  -0.000000  -0.000000   0.000000   0.000000
   12  N  2  S   -0.018593  -0.000000  -0.000000   0.000000   0.000000
   13  N  2  S    0.228618  -0.000000  -0.000000   0.000000   0.000000
   14  N  2  S    0.158375  -0.000000  -0.000000   0.000000   0.000000
   15  N  2  X   -0.000000  -0.000000  -0.574802  -0.769672   0.000000
   16  N  2  Y   -0.000000  -0.574802  -0.000000   0.000000  -0.769672
   17  N  2  Z   -0.344936  -0.000000  -0.000000   0.000000   0.000000
   18  N  2  X   -0.000000  -0.000000   0.643297   1.345453   0.000000
   19  N  2  Y   -0.000000   0.643297  -0.000000   0.000000   1.345453
   20  N  2  Z    1.186494  -0.000000  -0.000000   0.000000   0.000000

                     16         17         18         19         20
                    0.8721     1.3979     1.6287    32.6401    33.3006
                     A1         A1         A1         A1         A1  
    1  N  1  S   -0.093617  -0.002000   0.127279  -1.244758  -1.247599
    2  N  1  S   -0.157421  -0.011127   0.217604   1.341344   1.377005
    3  N  1  S    1.168082   0.365203  -1.732563  -0.215126  -0.399404
    4  N  1  S   -0.953627  -3.856048   4.561986   0.103529   0.734697
    5  N  1  X   -0.000000  -0.000000   0.000000  -0.000000   0.000000
    6  N  1  Y   -0.000000  -0.000000   0.000000  -0.000000   0.000000
    7  N  1  Z   -0.275016  -1.112475  -0.490336   0.020535  -0.063287
    8  N  1  X   -0.000000  -0.000000   0.000000  -0.000000   0.000000
    9  N  1  Y   -0.000000  -0.000000   0.000000  -0.000000   0.000000
   10  N  1  Z    0.132254  -1.061765   1.594826   0.007533   0.238835
   11  N  2  S   -0.093617   0.002000  -0.127279  -1.244758   1.247599
   12  N  2  S   -0.157421   0.011127  -0.217604   1.341344  -1.377005
   13  N  2  S    1.168082  -0.365203   1.732563  -0.215126   0.399404
   14  N  2  S   -0.953627   3.856048  -4.561986   0.103529  -0.734697
   15  N  2  X   -0.000000  -0.000000   0.000000  -0.000000   0.000000
   16  N  2  Y   -0.000000  -0.000000   0.000000  -0.000000   0.000000
   17  N  2  Z    0.275016  -1.112475  -0.490336  -0.020535  -0.063287
   18  N  2  X   -0.000000  -0.000000   0.000000  -0.000000   0.000000
   19  N  2  Y   -0.000000  -0.000000   0.000000  -0.000000   0.000000
   20  N  2  Z   -0.132254  -1.061765   1.594826  -0.007533   0.238835
 ...... END OF RHF CALCULATION ......
 STEP CPU TIME =     0.00 TOTAL CPU TIME =        0.0 (    0.0 MIN)
 TOTAL WALL CLOCK TIME=        0.1 SECONDS, CPU UTILIZATION IS  57.14%

     ----------------------------------------------------------------
     PROPERTY VALUES FOR THE RHF   SELF-CONSISTENT FIELD WAVEFUNCTION
     ----------------------------------------------------------------

          -----------------
          ENERGY COMPONENTS
          -----------------

         WAVEFUNCTION NORMALIZATION =       1.0000000000

                ONE ELECTRON ENERGY =    -198.1078872958
                TWO ELECTRON ENERGY =      63.3398925952
           NUCLEAR REPULSION ENERGY =      25.9296852128
                                      ------------------
                       TOTAL ENERGY =    -108.8383094879

 ELECTRON-ELECTRON POTENTIAL ENERGY =      63.3398925952
  NUCLEUS-ELECTRON POTENTIAL ENERGY =    -307.5402802648
   NUCLEUS-NUCLEUS POTENTIAL ENERGY =      25.9296852128
                                      ------------------
             TOTAL POTENTIAL ENERGY =    -218.2707024568
               TOTAL KINETIC ENERGY =     109.4323929689
                 VIRIAL RATIO (V/T) =       1.9945712283

  ...... PI ENERGY ANALYSIS ......

 ENERGY ANALYSIS:
            FOCK ENERGY=    -71.4281019957
          BARE H ENERGY=   -198.1078872958
     ELECTRONIC ENERGY =   -134.7679946458
         KINETIC ENERGY=    109.4323929689
          N-N REPULSION=     25.9296852128
           TOTAL ENERGY=   -108.8383094330
        SIGMA PART(1+2)=   -116.7560358918
               (K,V1,2)=    102.5544479041   -267.3291829258     48.0186991299
           PI PART(1+2)=    -18.0119587540
               (K,V1,2)=      6.8779450648    -40.2110973390     15.3211935202
  SIGMA SKELETON, ERROR=    -90.8263506790      0.0000000000
             MIXED PART= 0.00000E+00 0.00000E+00 0.00000E+00 0.00000E+00
 ...... END OF PI ENERGY ANALYSIS ......

          ---------------------------------------
          MULLIKEN AND LOWDIN POPULATION ANALYSES
          ---------------------------------------

               ----- POPULATIONS IN EACH AO -----
                             MULLIKEN      LOWDIN
              1  N  1  S      1.16055     1.08794
              2  N  1  S      0.83301     0.89612
              3  N  1  S      0.93310     0.80327
              4  N  1  S      0.86570     0.72002
              5  N  1  X      0.80918     0.72816
              6  N  1  Y      0.80918     0.72816
              7  N  1  Z      1.15813     1.14506
              8  N  1  X      0.19082     0.27184
              9  N  1  Y      0.19082     0.27184
             10  N  1  Z      0.04951     0.34759
             11  N  2  S      1.16055     1.08794
             12  N  2  S      0.83301     0.89612
             13  N  2  S      0.93310     0.80327
             14  N  2  S      0.86570     0.72002
             15  N  2  X      0.80918     0.72816
             16  N  2  Y      0.80918     0.72816
             17  N  2  Z      1.15813     1.14506
             18  N  2  X      0.19082     0.27184
             19  N  2  Y      0.19082     0.27184
             20  N  2  Z      0.04951     0.34759

          ----- MULLIKEN ATOMIC OVERLAP POPULATIONS -----
          (OFF-DIAGONAL ELEMENTS NEED TO BE MULTIPLIED BY 2)

             1           2

    1    6.3430579
    2    0.6569421   6.3430579

          TOTAL MULLIKEN AND LOWDIN ATOMIC POPULATIONS
       ATOM         MULL.POP.    CHARGE          LOW.POP.     CHARGE
    1 N             7.000000    0.000000         7.000000    0.000000
    2 N             7.000000   -0.000000         7.000000    0.000000

          ---------------------
          ELECTROSTATIC MOMENTS
          ---------------------

 POINT   1           X           Y           Z (BOHR)    CHARGE
                 0.000000    0.000000    0.944863       -0.00 (A.U.)
         DX          DY          DZ         /D/  (DEBYE)
     0.000000    0.000000   -0.000000    0.000000
 ...... END OF PROPERTY EVALUATION ......
 STEP CPU TIME =     0.00 TOTAL CPU TIME =        0.0 (    0.0 MIN)
 TOTAL WALL CLOCK TIME=        0.1 SECONDS, CPU UTILIZATION IS  50.00%

 GUGA CI OPTIONS      NRNFG     NPFLG
 ------------------------------------

 -DRT- TABLE          1         0
 TRANSFORMATION       1         0
 ENERGY MATRIX        1         0
 DIAGONALIZATION      1         0
 1E-DENSITY MATRIX    1         0
 2E-DENSITY MATRIX    0         0
 LAGRANGIAN MATRIX    0         0
------------------------------------

 -DRT- TABLE          0         0
 TRANSFORMATION   

          -----------------------     ----------------------------
          GUGA DISTINCT ROW TABLE     WRITTEN BY B.R.BROOKS,P.SAXE
          -----------------------     ----------------------------

      GROUP=C2V          NPRT=       0
       FORS=       F   INTACT=       F
       FOCI=       F   MXNINT=   50000
       SOCI=       F   MXNEME=   10000
     IEXCIT=      14

      -CORE-    -INTERNAL-  -EXTERNAL-
     NFZC=   0   NDOC=   7   NEXT=   0
     NMCC=   0   NAOS=   0   NFZV=   0
                 NBOS=   0
                 NALP=   0
                 NVAL=  13

 THE MAXIMUM ELECTRON EXCITATION WILL BE  14

 SYMMETRIES FOR THE   0 CORE,  20 ACTIVE,   0 EXTERNAL MO-S ARE
   ACTIVE= A1    A1    A1    A1    B2    B1    A1    B2    B1    A1  
           DOC   DOC   DOC   DOC   DOC   DOC   DOC   VAL   VAL   VAL 
   ACTIVE= A1    B2    B1    B1    B2    A1    A1    A1    A1    A1  
           VAL   VAL   VAL   VAL   VAL   VAL   VAL   VAL   VAL   VAL 

 MOLECULAR CHARGE          =    0
 NUMBER OF ALPHA ELECTRONS =    7
 NUMBER OF  BETA ELECTRONS =    7

 THE ELECTRONIC STATE IS  1-A1  

 THE DISTINCT ROW TABLE HAS       841 ROWS.
  THE WAVEFUNCTION CONTAINS 282143024 WALKS (CSF-S).
