----- GAMESS execution script 'rungms' -----
This job is running on host bach.ad64.riken.go.jp
under operating system Darwin at 2019年 1月17日 木曜日 17時45分50秒 JST
Available scratch disk space (Kbyte units) at beginning of the job is
Filesystem   1024-blocks       Used Available Capacity iused      ifree %iused  Mounted on
/dev/disk2s2  1953178672 1144740860 808437812    59%  984132 4293983147    0%   /Volumes/Users
GAMESS temporary binary files will be written to ./
GAMESS supplementary output files will be written to ./
Copying input file LiH.631g/1.6/LiH.631g.fullCI.1.6.gamess.inp to your run's scratch directory...
cp LiH.631g/1.6/LiH.631g.fullCI.1.6.gamess.inp .//LiH.631g/1.6/LiH.631g.fullCI.1.6.gamess.F05
unset echo
/Volumes/Users/maho/bin/gamess//ddikick.x /Volumes/Users/maho/bin/gamess//gamess.00.x LiH.631g/1.6/LiH.631g.fullCI.1.6.gamess -ddi 1 1 bach.ad64.riken.go.jp -scr ./

 Distributed Data Interface kickoff program.
 Initiating 1 compute processes on 1 nodes to run the following command:
 /Volumes/Users/maho/bin/gamess//gamess.00.x LiH.631g/1.6/LiH.631g.fullCI.1.6.gamess 

          ******************************************************
          *         GAMESS VERSION = 18 AUG 2016 (R1)          *
          *             FROM IOWA STATE UNIVERSITY             *
          * M.W.SCHMIDT, K.K.BALDRIDGE, J.A.BOATZ, S.T.ELBERT, *
          *   M.S.GORDON, J.H.JENSEN, S.KOSEKI, N.MATSUNAGA,   *
          *          K.A.NGUYEN, S.J.SU, T.L.WINDUS,           *
          *       TOGETHER WITH M.DUPUIS, J.A.MONTGOMERY       *
          *         J.COMPUT.CHEM.  14, 1347-1363(1993)        *
          **************** 64 BIT APPLE VERSION ****************

  SINCE 1993, STUDENTS AND POSTDOCS WORKING AT IOWA STATE UNIVERSITY
  AND ALSO IN THEIR VARIOUS JOBS AFTER LEAVING ISU HAVE MADE IMPORTANT
  CONTRIBUTIONS TO THE CODE:
     IVANA ADAMOVIC, CHRISTINE AIKENS, YURI ALEXEEV, POOJA ARORA,
     ANDREY ASADCHEV, ROB BELL, PRADIPTA BANDYOPADHYAY, JONATHAN BENTZ,
     BRETT BODE, KURT BRORSEN, CALEB CARLIN, GALINA CHABAN, WEI CHEN,
     CHEOL HO CHOI, PAUL DAY, ALBERT DEFUSCO, NUWAN DESILVA, TIM DUDLEY,
     DMITRI FEDOROV, GRAHAM FLETCHER, MARK FREITAG, KURT GLAESEMANN,
     DAN KEMP, GRANT MERRILL, NORIYUKI MINEZAWA, JONATHAN MULLIN,
     TAKESHI NAGATA, SEAN NEDD, HEATHER NETZLOFF, BOSILJKA NJEGIC, RYAN OLSON,
     MIKE PAK, SPENCER PRUITT, LUKE ROSKOP, JIM SHOEMAKER, LYUDMILA SLIPCHENKO,
     TONY SMITH, SAROM SOK LEANG, JIE SONG, TETSUYA TAKETSUGU, SIMON WEBB,
     PENG XU, SOOHAENG YOO, FEDERICO ZAHARIEV

  ADDITIONAL CODE HAS BEEN PROVIDED BY COLLABORATORS IN OTHER GROUPS:
     IOWA STATE UNIVERSITY:
          JOE IVANIC, AARON WEST, LAIMUTIS BYTAUTAS, KLAUS RUEDENBERG
     UNIVERSITY OF TOKYO: KIMIHIKO HIRAO, TAKAHITO NAKAJIMA,
          TAKAO TSUNEDA, MUNEAKI KAMIYA, SUSUMU YANAGISAWA,
          KIYOSHI YAGI, MAHITO CHIBA, SEIKEN TOKURA, NAOAKI KAWAKAMI
     UNIVERSITY OF AARHUS: FRANK JENSEN
     UNIVERSITY OF IOWA: VISVALDAS KAIRYS, HUI LI
     NATIONAL INST. OF STANDARDS AND TECHNOLOGY: WALT STEVENS, DAVID GARMER
     UNIVERSITY OF PISA: BENEDETTA MENNUCCI, JACOPO TOMASI
     UNIVERSITY OF MEMPHIS: HENRY KURTZ, PRAKASHAN KORAMBATH
     UNIVERSITY OF ALBERTA: TOBY ZENG, MARIUSZ KLOBUKOWSKI
     UNIVERSITY OF NEW ENGLAND: MARK SPACKMAN
     MIE UNIVERSITY: HIROAKI UMEDA
     NAT. INST. OF ADVANCED INDUSTRIAL SCIENCE AND TECHNOLOGY: KAZUO KITAURA
     MICHIGAN STATE UNIVERSITY:
          KAROL KOWALSKI, MARTA WLOCH, JEFFREY GOUR, JESSE LUTZ,
          WEI LI, PIOTR PIECUCH
     UNIVERSITY OF SILESIA: MONIKA MUSIAL, STANISLAW KUCHARSKI
     FACULTES UNIVERSITAIRES NOTRE-DAME DE LA PAIX:
          OLIVIER QUINET, BENOIT CHAMPAGNE
     UNIVERSITY OF CALIFORNIA - SANTA BARBARA: BERNARD KIRTMAN
     INSTITUTE FOR MOLECULAR SCIENCE:
          KAZUYA ISHIMURA, MICHIO KATOUDA, AND SHIGERU NAGASE
     UNIVERSITY OF NOTRE DAME: ANNA POMOGAEVA, DAN CHIPMAN
     KYUSHU UNIVERSITY:
          HARUYUKI NAKANO,
          FENG LONG GU, JACEK KORCHOWIEC, MARCIN MAKOWSKI, AND YURIKO AOKI,
          HIROTOSHI MORI AND EISAKU MIYOSHI
     PENNSYLVANIA STATE UNIVERSITY:
          TZVETELIN IORDANOV, CHET SWALINA, JONATHAN SKONE,
          SHARON HAMMES-SCHIFFER
     WASEDA UNIVERSITY:
          MASATO KOBAYASHI, TOMOKO AKAMA, TSUGUKI TOUMA,
          TAKESHI YOSHIKAWA, YASUHIRO IKABATA, JUNJI SEINO,
          YUYA NAKAJIMA, HIROMI NAKAI
     NANJING UNIVERSITY: SHUHUA LI
     UNIVERSITY OF NEBRASKA:
          PEIFENG SU, DEJUN SI, NANDUN THELLAMUREGE, YALI WANG, HUI LI
     UNIVERSITY OF ZURICH: ROBERTO PEVERATI, KIM BALDRIDGE
     N. COPERNICUS UNIVERSITY AND JACKSON STATE UNIVERSITY:
          MARIA BARYSZ
     UNIVERSITY OF COPENHAGEN: Jimmy Kromann, CASPER STEINMANN
     TOKYO INSTITUTE OF TECHNOLOGY: HIROYA NAKATA
     NAGOYA UNIVERSITY: YOSHIO NISHIMOTO, STEPHAN IRLE
     MOSCOW STATE UNIVERSITY: VLADIMIR MIRONOV

 EXECUTION OF GAMESS BEGUN Thu Jan 17 17:45:51 2019

            ECHO OF THE FIRST FEW INPUT CARDS -
 INPUT CARD> $CONTRL SCFTYP=RHF CITYP=ALDET $END                                            
 INPUT CARD> $GUESS  GUESS=HUCKEL $END                                                      
 INPUT CARD> $BASIS GBASIS=N31 NGAUSS=6 NDFUNC=1 NPFUNC=1 $END                              
 INPUT CARD> $CIDET SZ=0 GROUP=C2V NCORE=0 NACT=20 NELS=4 $END                              
 INPUT CARD> $DATA                                                                          
 INPUT CARD>LiH...HF...6-31G* basis                                                         
 INPUT CARD>Cnv   2                                                                         
 INPUT CARD>                                                                                
 INPUT CARD>Li    3.0    0.0      0.0     0.0                                               
 INPUT CARD>H     1.0    0.0      0.0     1.6                                               
 INPUT CARD> $END                                                                           
    1000000 WORDS OF MEMORY AVAILABLE

     BASIS OPTIONS
     -------------
     GBASIS=N31          IGAUSS=       6      POLAR=POPN31  
     NDFUNC=       1     NFFUNC=       0     DIFFSP=       F
     NPFUNC=       1      DIFFS=       F     BASNAM=        


     RUN TITLE
     ---------
 LiH...HF...6-31G* basis                                                         

 THE POINT GROUP OF THE MOLECULE IS CNV     
 THE ORDER OF THE PRINCIPAL AXIS IS     2

 ATOM      ATOMIC                      COORDINATES (BOHR)
           CHARGE         X                   Y                   Z
 LI          3.0     0.0000000000        0.0000000000        0.0000000000
 H           1.0     0.0000000000        0.0000000000        3.0235615804

          INTERNUCLEAR DISTANCES (ANGS.)
          ------------------------------

                1 LI         2 H     

   1 LI      0.0000000    1.6000000 *
   2 H       1.6000000 *  0.0000000  

  * ... LESS THAN  3.000


     ATOMIC BASIS SET
     ----------------
 THE CONTRACTED PRIMITIVE FUNCTIONS HAVE BEEN UNNORMALIZED
 THE CONTRACTED BASIS FUNCTIONS ARE NOW NORMALIZED TO UNITY

  SHELL TYPE  PRIMITIVE        EXPONENT          CONTRACTION COEFFICIENT(S)

 LI        

      1   S       1           642.4189150    0.002142607810
      1   S       2            96.7985153    0.016208871501
      1   S       3            22.0911212    0.077315572504
      1   S       4             6.2010702    0.245786052013
      1   S       5             1.9351177    0.470189004025
      1   S       6             0.6367358    0.345470845019

      2   L       7             2.3249184   -0.035091745735    0.008941508043
      2   L       8             0.6324304   -0.191232843103    0.141009464046
      2   L       9             0.0790534    1.083987794916    0.945363695309

      3   L      10             0.0359620    1.000000000000    1.000000000000

      4   D      11             0.2000000    1.000000000000

 H         

      5   S      12            18.7311370    0.033494604338
      5   S      13             2.8253944    0.234726953484
      5   S      14             0.6401217    0.813757326146

      6   S      15             0.1612778    1.000000000000

      7   P      16             1.1000000    1.000000000000

 TOTAL NUMBER OF BASIS SET SHELLS             =    7
 NUMBER OF CARTESIAN GAUSSIAN BASIS FUNCTIONS =   20
 NUMBER OF ELECTRONS                          =    4
 CHARGE OF MOLECULE                           =    0
 SPIN MULTIPLICITY                            =    1
 NUMBER OF OCCUPIED ORBITALS (ALPHA)          =    2
 NUMBER OF OCCUPIED ORBITALS (BETA )          =    2
 TOTAL NUMBER OF ATOMS                        =    2
 THE NUCLEAR REPULSION ENERGY IS        0.9922073423

 THIS MOLECULE IS RECOGNIZED AS BEING LINEAR,
 ORBITAL LZ DEGENERACY TOLERANCE ETOLLZ= 1.00E-06

     $CONTRL OPTIONS
     ---------------
 SCFTYP=RHF          RUNTYP=ENERGY       EXETYP=RUN     
 MPLEVL=       0     CITYP =ALDET        CCTYP =NONE         VBTYP =NONE    
 DFTTYP=NONE         TDDFT =NONE    
 MULT  =       1     ICHARG=       0     NZVAR =       0     COORD =UNIQUE  
 PP    =NONE         RELWFN=NONE         LOCAL =NONE         NUMGRD=       F
 ISPHER=      -1     NOSYM =       0     MAXIT =      30     UNITS =ANGS    
 PLTORB=       F     MOLPLT=       F     AIMPAC=       F     FRIEND=        
 NPRINT=       7     IREST =       0     GEOM  =INPUT   
 NORMF =       0     NORMP =       0     ITOL  =      20     ICUT  =       9
 INTTYP=BEST         GRDTYP=BEST         QMTTOL= 1.0E-06

     $SYSTEM OPTIONS
     ---------------
  REPLICATED MEMORY=     1000000 WORDS (ON EVERY NODE).
 DISTRIBUTED MEMDDI=           0 MILLION WORDS IN AGGREGATE,
 MEMDDI DISTRIBUTED OVER   1 PROCESSORS IS           0 WORDS/PROCESSOR.
 TOTAL MEMORY REQUESTED ON EACH PROCESSOR=     1000000 WORDS.
 TIMLIM=      525600.00 MINUTES, OR     365.0 DAYS.
 PARALL= F  BALTYP=  DLB     KDIAG=    0  COREFL= F
 MXSEQ2=     300 MXSEQ3=     150  mem10=         0

          ----------------
          PROPERTIES INPUT
          ----------------

     MOMENTS            FIELD           POTENTIAL          DENSITY
 IEMOM =       1   IEFLD =       0   IEPOT =       0   IEDEN =       0
 WHERE =COMASS     WHERE =NUCLEI     WHERE =NUCLEI     WHERE =NUCLEI  
 OUTPUT=BOTH       OUTPUT=BOTH       OUTPUT=BOTH       OUTPUT=BOTH    
 IEMINT=       0   IEFINT=       0                     IEDINT=       0
                                                       MORB  =       0
          EXTRAPOLATION IN EFFECT
          SOSCF IN EFFECT
 ORBITAL PRINTING OPTION: NPREO=     1    20     2     1

     -------------------------------
     INTEGRAL TRANSFORMATION OPTIONS
     -------------------------------
     NWORD  =            0
     CUTOFF = 1.0E-09     MPTRAN =       0
     DIRTRF =       F     AOINTS =DUP     

          ----------------------
          INTEGRAL INPUT OPTIONS
          ----------------------
 NOPK  =       1 NORDER=       0 SCHWRZ=       F

     ------------------------------------------
     THE POINT GROUP IS CNV, NAXIS= 2, ORDER= 4
     ------------------------------------------

     DIMENSIONS OF THE SYMMETRY SUBSPACES ARE
 A1  =   11     A2  =    1     B1  =    4     B2  =    4

 ..... DONE SETTING UP THE RUN .....
 STEP CPU TIME =     0.01 TOTAL CPU TIME =        0.0 (    0.0 MIN)
 TOTAL WALL CLOCK TIME=        0.0 SECONDS, CPU UTILIZATION IS 100.00%

          ********************
          1 ELECTRON INTEGRALS
          ********************
 ...... END OF ONE-ELECTRON INTEGRALS ......
 STEP CPU TIME =     0.00 TOTAL CPU TIME =        0.0 (    0.0 MIN)
 TOTAL WALL CLOCK TIME=        0.0 SECONDS, CPU UTILIZATION IS 100.00%

          -------------
          GUESS OPTIONS
          -------------
          GUESS =HUCKEL            NORB  =       0          NORDER=       0
          MIX   =       F          PRTMO =       F          PUNMO =       F
          TOLZ  = 1.0E-08          TOLE  = 1.0E-05
          SYMDEN=       F          PURIFY=       F

 INITIAL GUESS ORBITALS GENERATED BY HUCKEL   ROUTINE.
 HUCKEL GUESS REQUIRES      4469 WORDS.

 SYMMETRIES FOR INITIAL GUESS ORBITALS FOLLOW.   BOTH SET(S).
     2 ORBITALS ARE OCCUPIED (    1 CORE ORBITALS).
     2=A1       3=A1       4=A1       5=A1       6=A1       7=A1       8=A1  
     9=A1      10=A1      11=A1      12=A2  
 ...... END OF INITIAL ORBITAL SELECTION ......
 STEP CPU TIME =     0.00 TOTAL CPU TIME =        0.0 (    0.0 MIN)
 TOTAL WALL CLOCK TIME=        0.0 SECONDS, CPU UTILIZATION IS  50.00%

                    ----------------------
                    AO INTEGRAL TECHNOLOGY
                    ----------------------
     S,P,L SHELL ROTATED AXIS INTEGRALS, REPROGRAMMED BY
        KAZUYA ISHIMURA (IMS) AND JOSE SIERRA (SYNSTAR).
     S,P,D,L SHELL ROTATED AXIS INTEGRALS PROGRAMMED BY
        KAZUYA ISHIMURA (INSTITUTE FOR MOLECULAR SCIENCE).
     S,P,D,F,G SHELL TO TOTAL QUARTET ANGULAR MOMENTUM SUM 5,
        ERIC PROGRAM BY GRAHAM FLETCHER (ELORET AND NASA ADVANCED
        SUPERCOMPUTING DIVISION, AMES RESEARCH CENTER).
     S,P,D,F,G,L SHELL GENERAL RYS QUADRATURE PROGRAMMED BY
        MICHEL DUPUIS (PACIFIC NORTHWEST NATIONAL LABORATORY).

          --------------------
          2 ELECTRON INTEGRALS
          --------------------

 THE -PK- OPTION IS OFF, THE INTEGRALS ARE NOT IN SUPERMATRIX FORM.
 STORING   15000 INTEGRALS/RECORD ON DISK, USING 12 BYTES/INTEGRAL.
 TWO ELECTRON INTEGRAL EVALUATION REQUIRES   90424 WORDS OF MEMORY.
 II,JST,KST,LST =  1  1  1  1 NREC =         1 INTLOC =    1
 II,JST,KST,LST =  2  1  1  1 NREC =         1 INTLOC =    2
 II,JST,KST,LST =  3  1  1  1 NREC =         1 INTLOC =   34
 II,JST,KST,LST =  4  1  1  1 NREC =         1 INTLOC =  214
 II,JST,KST,LST =  5  1  1  1 NREC =         1 INTLOC = 1189
 II,JST,KST,LST =  6  1  1  1 NREC =         1 INTLOC = 1867
 II,JST,KST,LST =  7  1  1  1 NREC =         1 INTLOC = 2713
 TOTAL NUMBER OF NONZERO TWO-ELECTRON INTEGRALS =                5596
          1 INTEGRAL RECORDS WERE STORED ON DISK FILE  8.
  ...... END OF TWO-ELECTRON INTEGRALS .....
 STEP CPU TIME =     0.02 TOTAL CPU TIME =        0.0 (    0.0 MIN)
 TOTAL WALL CLOCK TIME=        0.0 SECONDS, CPU UTILIZATION IS  75.00%

          --------------------------
                 RHF SCF CALCULATION
          --------------------------

     NUCLEAR ENERGY =         0.9922073423
     MAXIT =   30     NPUNCH=    2
     EXTRAP=T  DAMP=F  SHIFT=F  RSTRCT=F  DIIS=F  DEM=F  SOSCF=T
     DENSITY MATRIX CONV=  1.00E-06
     SOSCF WILL OPTIMIZE      36 ORBITAL ROTATIONS, SOGTOL=   0.250
     MEMORY REQUIRED FOR RHF ITERS=     33224 WORDS.

 ITER EX DEM     TOTAL ENERGY        E CHANGE  DENSITY CHANGE     ORB. GRAD
   1  0  0       -7.8847978519    -7.8847978519   0.302992393   0.000000000
          ---------------START SECOND ORDER SCF---------------
   2  1  0       -7.9748643522    -0.0900665003   0.046916809   0.020526200
   3  2  0       -7.9803506562    -0.0054863040   0.032661230   0.006812761
   4  3  0       -7.9812182090    -0.0008675528   0.002974991   0.001114758
   5  4  0       -7.9812284916    -0.0000102826   0.000672176   0.000209143
   6  5  0       -7.9812286550    -0.0000001634   0.000086903   0.000013100
   7  6  0       -7.9812286570    -0.0000000020   0.000014574   0.000001621
   8  7  0       -7.9812286570    -0.0000000001   0.000000402   0.000000158
   9  8  0       -7.9812286570    -0.0000000000   0.000000049   0.000000024

          -----------------
          DENSITY CONVERGED
          -----------------
     TIME TO FORM FOCK OPERATORS=       0.0 SECONDS (       0.0 SEC/ITER)
     TIME TO SOLVE SCF EQUATIONS=       0.0 SECONDS (       0.0 SEC/ITER)

 FINAL RHF ENERGY IS       -7.9812286570 AFTER   9 ITERATIONS

 LZ VALUE ANALYSIS FOR THE MOS
 ----------------------------------------
 MO     1 (    1) HAS LZ(WEIGHT)= 0.00(100.0%) 
 MO     2 (    2) HAS LZ(WEIGHT)= 0.00(100.0%) 
 MO     3 (    3) HAS LZ(WEIGHT)= 0.00(100.0%) 
 MO     4 (    4) HAS LZ(WEIGHT)=-1.00( 50.0%)  1.00( 50.0%) 
 MO     5 (    4) HAS LZ(WEIGHT)=-1.00( 50.0%)  1.00( 50.0%) 
 MO     6 (    5) HAS LZ(WEIGHT)= 0.00(100.0%) 
 MO     7 (    6) HAS LZ(WEIGHT)= 0.00(100.0%) 
 MO     8 (    7) HAS LZ(WEIGHT)=-1.00( 50.0%)  1.00( 50.0%) 
 MO     9 (    7) HAS LZ(WEIGHT)=-1.00( 50.0%)  1.00( 50.0%) 
 MO    10 (    8) HAS LZ(WEIGHT)= 0.00(100.0%) 
 MO    11 (    9) HAS LZ(WEIGHT)=-1.00( 50.0%)  1.00( 50.0%) 
 MO    12 (    9) HAS LZ(WEIGHT)=-1.00( 50.0%)  1.00( 50.0%) 
 MO    13 (   10) HAS LZ(WEIGHT)=-2.00( 50.0%)  2.00( 50.0%) 
 MO    14 (   10) HAS LZ(WEIGHT)=-2.00( 50.0%)  2.00( 50.0%) 
 MO    15 (   11) HAS LZ(WEIGHT)= 0.00(100.0%) 
 MO    16 (   12) HAS LZ(WEIGHT)= 0.00(100.0%) 
 MO    17 (   13) HAS LZ(WEIGHT)= 0.00(100.0%) 
 MO    18 (   14) HAS LZ(WEIGHT)=-1.00( 50.0%)  1.00( 50.0%) 
 MO    19 (   14) HAS LZ(WEIGHT)=-1.00( 50.0%)  1.00( 50.0%) 
 MO    20 (   15) HAS LZ(WEIGHT)= 0.00(100.0%) 

          ------------
          EIGENVECTORS
          ------------

                      1          2          3          4          5
                   -2.4496    -0.2998     0.0087     0.0601     0.0601
                     A1         A1         A1         B1         B2  
    1  LI 1  S    0.998131  -0.130001  -0.141934  -0.000000  -0.000000
    2  LI 1  S   -0.009588   0.205283  -0.405426  -0.000000  -0.000000
    3  LI 1  X    0.000000  -0.000000   0.000000   0.013654  -0.000000
    4  LI 1  Y    0.000000  -0.000000   0.000000  -0.000000   0.013654
    5  LI 1  Z   -0.012203   0.249683  -0.172104  -0.000000  -0.000000
    6  LI 1  S   -0.000532   0.166715   0.994496  -0.000000  -0.000000
    7  LI 1  X    0.000000  -0.000000   0.000000   0.988368  -0.000000
    8  LI 1  Y    0.000000  -0.000000   0.000000  -0.000000   0.988368
    9  LI 1  Z    0.005967  -0.001883  -0.498181  -0.000000  -0.000000
   10  LI 1 XX    0.008716  -0.009714   0.069502  -0.000000  -0.000000
   11  LI 1 YY    0.008716  -0.009714   0.069502  -0.000000  -0.000000
   12  LI 1 ZZ    0.005586   0.041711   0.090281  -0.000000  -0.000000
   13  LI 1 XY    0.000000  -0.000000   0.000000  -0.000000  -0.000000
   14  LI 1 XZ    0.000000  -0.000000   0.000000  -0.027750  -0.000000
   15  LI 1 YZ    0.000000  -0.000000   0.000000  -0.000000  -0.027750
   16  H  2  S    0.002586   0.289693  -0.060043  -0.000000  -0.000000
   17  H  2  S    0.006661   0.397925  -0.080248  -0.000000  -0.000000
   18  H  2  X    0.000000  -0.000000   0.000000   0.005248  -0.000000
   19  H  2  Y    0.000000  -0.000000   0.000000  -0.000000   0.005248
   20  H  2  Z   -0.001376  -0.010549   0.002768  -0.000000  -0.000000

                      6          7          8          9         10
                    0.1440     0.1935     0.2216     0.2216     0.3490
                     A1         A1         B2         B1         A1  
    1  LI 1  S   -0.049703   0.047046   0.000000   0.000000   0.064242
    2  LI 1  S   -0.416409   2.745011   0.000000   0.000000   1.842974
    3  LI 1  X    0.000000  -0.000000   0.000000   1.669477  -0.000000
    4  LI 1  Y    0.000000  -0.000000   1.669477   0.000000  -0.000000
    5  LI 1  Z   -0.615969  -0.921797   0.000000   0.000000   1.532098
    6  LI 1  S    0.898484  -2.182734   0.000000   0.000000  -0.729420
    7  LI 1  X    0.000000  -0.000000   0.000000  -1.349812  -0.000000
    8  LI 1  Y    0.000000  -0.000000  -1.349812   0.000000  -0.000000
    9  LI 1  Z    1.355344   0.550891   0.000000   0.000000  -0.596038
   10  LI 1 XX    0.065418  -0.274937   0.000000   0.000000  -0.012500
   11  LI 1 YY    0.065418  -0.274937   0.000000   0.000000  -0.012500
   12  LI 1 ZZ    0.108958  -0.239048   0.000000   0.000000  -0.346208
   13  LI 1 XY    0.000000  -0.000000   0.000000   0.000000  -0.000000
   14  LI 1 XZ    0.000000  -0.000000   0.000000  -0.068079  -0.000000
   15  LI 1 YZ    0.000000  -0.000000  -0.068079   0.000000  -0.000000
   16  H  2  S   -0.094662  -0.006390   0.000000   0.000000  -0.073348
   17  H  2  S   -0.595942   0.223141   0.000000   0.000000  -1.169226
   18  H  2  X    0.000000  -0.000000   0.000000   0.008243  -0.000000
   19  H  2  Y    0.000000  -0.000000   0.008243   0.000000  -0.000000
   20  H  2  Z    0.011183   0.008023   0.000000   0.000000  -0.023174

                     11         12         13         14         15
                    0.5722     0.5722     0.5800     0.5800     0.7726
                     B2         B1         A2         A1         A1  
    1  LI 1  S   -0.000000  -0.000000   0.000000   0.000000  -0.122162
    2  LI 1  S   -0.000000  -0.000000   0.000000   0.000000  -0.669735
    3  LI 1  X   -0.000000   0.108812   0.000000   0.000000  -0.000000
    4  LI 1  Y    0.108812  -0.000000   0.000000   0.000000  -0.000000
    5  LI 1  Z   -0.000000  -0.000000   0.000000   0.000000  -1.583492
    6  LI 1  S   -0.000000  -0.000000   0.000000   0.000000  -0.165994
    7  LI 1  X   -0.000000  -0.062340   0.000000   0.000000  -0.000000
    8  LI 1  Y   -0.062340  -0.000000   0.000000   0.000000  -0.000000
    9  LI 1  Z   -0.000000  -0.000000   0.000000   0.000000   0.218643
   10  LI 1 XX   -0.000000  -0.000000   0.000000   0.866025   0.499419
   11  LI 1 YY   -0.000000  -0.000000   0.000000  -0.866025   0.499419
   12  LI 1 ZZ   -0.000000  -0.000000   0.000000   0.000000  -1.550167
   13  LI 1 XY   -0.000000  -0.000000   1.000000   0.000000  -0.000000
   14  LI 1 XZ   -0.000000   0.993357   0.000000   0.000000  -0.000000
   15  LI 1 YZ    0.993357  -0.000000   0.000000   0.000000  -0.000000
   16  H  2  S   -0.000000  -0.000000   0.000000   0.000000  -0.112940
   17  H  2  S   -0.000000  -0.000000   0.000000   0.000000   2.265062
   18  H  2  X   -0.000000   0.018292   0.000000   0.000000  -0.000000
   19  H  2  Y    0.018292  -0.000000   0.000000   0.000000  -0.000000
   20  H  2  Z   -0.000000  -0.000000   0.000000   0.000000  -0.006092

                     16         17         18         19         20
                    1.1879     1.3790     2.5739     2.5739     2.7546
                     A1         A1         B2         B1         A1  
    1  LI 1  S    0.082307   0.142855  -0.000000  -0.000000   0.081371
    2  LI 1  S    8.603028   4.327823  -0.000000  -0.000000   0.797287
    3  LI 1  X    0.000000  -0.000000  -0.000000  -0.148620  -0.000000
    4  LI 1  Y    0.000000  -0.000000  -0.148620  -0.000000  -0.000000
    5  LI 1  Z    0.154572   0.081844  -0.000000  -0.000000   0.930930
    6  LI 1  S   -2.706297  -1.063069  -0.000000  -0.000000  -0.176223
    7  LI 1  X    0.000000  -0.000000  -0.000000   0.059439  -0.000000
    8  LI 1  Y    0.000000  -0.000000   0.059439  -0.000000  -0.000000
    9  LI 1  Z   -0.104642   0.238654  -0.000000  -0.000000  -0.270073
   10  LI 1 XX   -2.949936  -1.274810  -0.000000  -0.000000  -0.244497
   11  LI 1 YY   -2.949936  -1.274810  -0.000000  -0.000000  -0.244497
   12  LI 1 ZZ   -2.617100  -1.625562  -0.000000  -0.000000   0.499865
   13  LI 1 XY    0.000000  -0.000000  -0.000000  -0.000000  -0.000000
   14  LI 1 XZ    0.000000  -0.000000  -0.000000  -0.238685  -0.000000
   15  LI 1 YZ    0.000000  -0.000000  -0.238685  -0.000000  -0.000000
   16  H  2  S   -0.427567   1.349621  -0.000000  -0.000000   0.045870
   17  H  2  S    0.227772  -1.372843  -0.000000  -0.000000  -1.042644
   18  H  2  X    0.000000  -0.000000  -0.000000   1.028582  -0.000000
   19  H  2  Y    0.000000  -0.000000   1.028582  -0.000000  -0.000000
   20  H  2  Z   -0.008651  -0.033271  -0.000000  -0.000000   1.089710
 ...... END OF RHF CALCULATION ......
 STEP CPU TIME =     0.01 TOTAL CPU TIME =        0.0 (    0.0 MIN)
 TOTAL WALL CLOCK TIME=        0.1 SECONDS, CPU UTILIZATION IS  80.00%

     ----------------------------------------------------------------
     PROPERTY VALUES FOR THE RHF   SELF-CONSISTENT FIELD WAVEFUNCTION
     ----------------------------------------------------------------

          -----------------
          ENERGY COMPONENTS
          -----------------

         WAVEFUNCTION NORMALIZATION =       1.0000000000

                ONE ELECTRON ENERGY =     -12.4479413172
                TWO ELECTRON ENERGY =       3.4745053178
           NUCLEAR REPULSION ENERGY =       0.9922073423
                                      ------------------
                       TOTAL ENERGY =      -7.9812286570

 ELECTRON-ELECTRON POTENTIAL ENERGY =       3.4745053178
  NUCLEUS-ELECTRON POTENTIAL ENERGY =     -20.4579716432
   NUCLEUS-NUCLEUS POTENTIAL ENERGY =       0.9922073423
                                      ------------------
             TOTAL POTENTIAL ENERGY =     -15.9912589830
               TOTAL KINETIC ENERGY =       8.0100303260
                 VIRIAL RATIO (V/T) =       1.9964042996

  ...... PI ENERGY ANALYSIS ......

 ENERGY ANALYSIS:
            FOCK ENERGY=     -5.4989306764
          BARE H ENERGY=    -12.4479413172
     ELECTRONIC ENERGY =     -8.9734359968
         KINETIC ENERGY=      8.0100303260
          N-N REPULSION=      0.9922073423
           TOTAL ENERGY=     -7.9812286545
        SIGMA PART(1+2)=     -8.9734359968
               (K,V1,2)=      8.0100303260    -20.4579716432      3.4745053204
           PI PART(1+2)=      0.0000000000
               (K,V1,2)=      0.0000000000      0.0000000000      0.0000000000
  SIGMA SKELETON, ERROR=     -7.9812286545      0.0000000000
             MIXED PART= 0.00000E+00 0.00000E+00 0.00000E+00 0.00000E+00
 ...... END OF PI ENERGY ANALYSIS ......

          ---------------------------------------
          MULLIKEN AND LOWDIN POPULATION ANALYSES
          ---------------------------------------

               ----- POPULATIONS IN EACH AO -----
                             MULLIKEN      LOWDIN
              1  LI 1  S      1.99796     1.98283
              2  LI 1  S      0.26341     0.18088
              3  LI 1  X      0.00000     0.00000
              4  LI 1  Y      0.00000     0.00000
              5  LI 1  Z      0.30183     0.27420
              6  LI 1  S      0.20176     0.19703
              7  LI 1  X      0.00000     0.00000
              8  LI 1  Y      0.00000     0.00000
              9  LI 1  Z     -0.00171     0.07768
             10  LI 1 XX     -0.00513     0.03667
             11  LI 1 YY     -0.00513     0.03667
             12  LI 1 ZZ      0.05733     0.18718
             13  LI 1 XY      0.00000     0.00000
             14  LI 1 XZ      0.00000     0.00000
             15  LI 1 YZ      0.00000     0.00000
             16  H  2  S      0.42874     0.40854
             17  H  2  S      0.75991     0.61755
             18  H  2  X      0.00000     0.00000
             19  H  2  Y      0.00000     0.00000
             20  H  2  Z      0.00104     0.00079

          ----- MULLIKEN ATOMIC OVERLAP POPULATIONS -----
          (OFF-DIAGONAL ELEMENTS NEED TO BE MULTIPLIED BY 2)

             1           2

    1    2.4090695
    2    0.4012407   0.7884491

          TOTAL MULLIKEN AND LOWDIN ATOMIC POPULATIONS
       ATOM         MULL.POP.    CHARGE          LOW.POP.     CHARGE
    1 LI            2.810310    0.189690         2.973124    0.026876
    2 H             1.189690   -0.189690         1.026876   -0.026876

          ---------------------
          ELECTROSTATIC MOMENTS
          ---------------------

 POINT   1           X           Y           Z (BOHR)    CHARGE
                 0.000000    0.000000    0.379772       -0.00 (A.U.)
         DX          DY          DZ         /D/  (DEBYE)
     0.000000    0.000000   -5.894038    5.894038
 ...... END OF PROPERTY EVALUATION ......
 STEP CPU TIME =     0.00 TOTAL CPU TIME =        0.0 (    0.0 MIN)
 TOTAL WALL CLOCK TIME=        0.1 SECONDS, CPU UTILIZATION IS  80.00%

 DETERMINANT CI OPTIONS   NRNFG   NPFLG
 INTEGRAL TRANSFORMATION    1       0
 DIAGONALIZE HAMILTONIAN    1       0
 FORM 1E- DENSITY MATRIX    1       0
 FORM 2E- DENSITY MATRIX    0       0

     --------------------------------------------------
          AMES LABORATORY DETERMINANTAL FULL CI
     PROGRAM WRITTEN BY JOE IVANIC AND KLAUS RUEDENBERG
     --------------------------------------------------

 THE POINT GROUP                  =   C2V     
 THE STATE SYMMETRY               =   A1      
 NUMBER OF CORE ORBITALS          =    0
 NUMBER OF ACTIVE ORBITALS        =   20
 NUMBER OF ALPHA ELECTRONS        =    2 (   2 ACTIVE)
 NUMBER OF BETA ELECTRONS         =    2 (   2 ACTIVE)
 NUMBER OF OCCUPIED ORBITALS      =   20
 NUMBER OF CI STATES REQUESTED    =    1
 NUMBER OF CI STARTING VECTORS    =    1
 MAX. NO. OF CI EXPANSION VECTORS =   10
 SIZE OF INITIAL CI GUESS MATRIX  =  300
 MAX. NO. OF CI ITERS/STATE       =  100
 CI DIAGONALIZATION CRITERION     = 1.00E-06
 CI PROPERTIES WILL BE FOUND FOR ROOT NUMBER   1
 1E- DENSITY MATRIX OPTIONS ARE 1

 CORRELATION ENERGY ANALYSIS      =    F

 SYMMETRIES FOR THE   0 CORE,  20 ACTIVE ARE

   ACTIVE= A1    A1    A1    B1    B2    A1    A1    B2    B1    A1  
           B2    B1    A2    A1    A1    A1    A1    B2    B1    A1  

     --------------------------------------------
     PARTIAL TWO ELECTRON INTEGRAL TRANSFORMATION
     --------------------------------------------

 NUMBER OF CORE MOLECULAR ORBITALS     =    0
 NUMBER OF OCCUPIED MOLECULAR ORBITALS =   20
 TOTAL NUMBER OF MOLECULAR ORBITALS    =   20
 TOTAL NUMBER OF ATOMIC ORBITALS       =   20
 THRESHOLD FOR KEEPING TRANSFORMED 2E- INTEGRALS = 1.000E-09
 AO INTEGRALS WILL BE READ IN FROM DISK...

 PLAN A: REQUIREMENTS FOR FULLY IN-MEMORY TRANSFORMATION:
 # OF WORDS AVAILABLE =              1000000
 # OF WORDS NEEDED    =               146042

 CHOOSING IN MEMORY PARTIAL TRANSFORMATION...
 TOTAL NUMBER OF TRANSFORMED 2E- INTEGRALS KEPT =         5962
 ... END OF INTEGRAL TRANSFORMATION ...
 STEP CPU TIME =     0.02 TOTAL CPU TIME =        0.1 (    0.0 MIN)
 TOTAL WALL CLOCK TIME=        0.1 SECONDS, CPU UTILIZATION IS 100.00%

     --------------------------------------------------
          AMES LABORATORY DETERMINANTAL FULL CI
     PROGRAM WRITTEN BY JOE IVANIC AND KLAUS RUEDENBERG
     --------------------------------------------------

 THE NUMBER OF DETERMINANTS HAVING SPACE SYMMETRY A1 
 IN POINT GROUP C2V  WITH SZ=  0.0 IS           9826
 THE DETERMINANT FULL CI REQUIRES          451749 WORDS
 INITIAL CI VECTOR GUESS TIME  :          0.1
 INITIAL FULL CI ITERATION TIME:          0.0

 ITERATION      ENERGY           GRADIENT
     0       -8.0053592068     0.13166438
     1       -8.0088468140     0.00880540
     2       -8.0089176877     0.00386124
     3       -8.0089261500     0.00111665
     4       -8.0089276403     0.00046697
     5       -8.0089278663     0.00015999
     6       -8.0089278844     0.00003551
     7       -8.0089278854     0.00000975
     8       -8.0089278855     0.00000225
     9       -8.0089278855     0.00000039

 CONVERGED STATE    1 ENERGY=       -8.0089278855 IN    9 ITERS

 ALL STATES CONVERGED.

 CI EIGENVECTORS WILL BE LABELED IN GROUP=C2V     
 PRINTING CI COEFFICIENTS LARGER THAN 5.000E-02

 STATE   1  ENERGY=        -8.0089278855  S=  0.00  SZ=  0.00  SPACE SYM=A1  

        ALPHA         |        BETA          | CI COEFFICIENT
----------------------|----------------------|---------------
 11000000000000000000 | 11000000000000000000 |   0.9873975963
 10000000010000000000 | 10000000010000000000 |  -0.0524386313
 ..... DONE WITH DETERMINANT CI COMPUTATION .....
 STEP CPU TIME =     0.27 TOTAL CPU TIME =        0.3 (    0.0 MIN)
 TOTAL WALL CLOCK TIME=        0.4 SECONDS, CPU UTILIZATION IS  76.74%

     ---------------------------
     ONE PARTICLE DENSITY MATRIX
     ---------------------------

 DENSITY MATRIX WILL BE SAVED FOR   1-TH STATE WITH S= 0.00

 CI EIGENSTATE   1 TOTAL ENERGY =       -8.0089278855

          NATURAL ORBITALS IN ATOMIC ORBITAL BASIS
          ----------------------------------------

                      1          2          3          4          5
                    1.9998     1.9534     0.0326     0.0047     0.0047
                     A1         A1         A1         B1         B2  
    1  LI 1  S    0.999764  -0.119113   0.091838   0.000000   0.000000
    2  LI 1  S   -0.008893   0.215217  -0.644072   0.000000   0.000000
    3  LI 1  X    0.000000   0.000000  -0.000000   0.794841   0.000000
    4  LI 1  Y    0.000000   0.000000  -0.000000   0.000000   0.794841
    5  LI 1  Z   -0.014962   0.244531  -0.421004   0.000000   0.000000
    6  LI 1  S   -0.004063   0.184637  -0.415358   0.000000   0.000000
    7  LI 1  X    0.000000   0.000000  -0.000000  -0.174883   0.000000
    8  LI 1  Y    0.000000   0.000000  -0.000000   0.000000  -0.174883
    9  LI 1  Z    0.005836  -0.001583  -0.103689   0.000000   0.000000
   10  LI 1 XX    0.007999  -0.006388   0.026113   0.000000   0.000000
   11  LI 1 YY    0.007999  -0.006388   0.026113   0.000000   0.000000
   12  LI 1 ZZ    0.004333   0.040044   0.031254   0.000000   0.000000
   13  LI 1 XY    0.000000   0.000000  -0.000000   0.000000   0.000000
   14  LI 1 XZ    0.000000   0.000000  -0.000000   0.565110   0.000000
   15  LI 1 YZ    0.000000   0.000000  -0.000000   0.000000   0.565110
   16  H  2  S   -0.001613   0.303119   0.710547   0.000000   0.000000
   17  H  2  S    0.001370   0.370710   0.439115   0.000000   0.000000
   18  H  2  X    0.000000   0.000000  -0.000000   0.341254   0.000000
   19  H  2  Y    0.000000   0.000000  -0.000000   0.000000   0.341254
   20  H  2  Z   -0.001277  -0.009961  -0.001440   0.000000   0.000000

                      6          7          8          9         10
                    0.0035     0.0005     0.0002     0.0002     0.0001
                     A1         A1         B1         B2         A1  
    1  LI 1  S    0.118407  -0.015217   0.000000   0.000000   0.098816
    2  LI 1  S    1.860040  -0.210116   0.000000   0.000000   1.927048
    3  LI 1  X   -0.000000   0.000000  -0.638349   0.000000  -0.000000
    4  LI 1  Y   -0.000000   0.000000   0.000000  -0.638349  -0.000000
    5  LI 1  Z    1.491181   0.326252   0.000000   0.000000   1.189315
    6  LI 1  S   -0.880002  -0.687956   0.000000   0.000000  -1.089869
    7  LI 1  X   -0.000000   0.000000   0.172830   0.000000  -0.000000
    8  LI 1  Y   -0.000000   0.000000   0.000000   0.172830  -0.000000
    9  LI 1  Z   -0.751982  -0.504274   0.000000   0.000000  -0.820842
   10  LI 1 XX   -0.313091  -0.079761   0.000000   0.000000  -0.261727
   11  LI 1 YY   -0.313091  -0.079761   0.000000   0.000000  -0.261727
   12  LI 1 ZZ    0.428826   0.353684   0.000000   0.000000   0.085518
   13  LI 1 XY   -0.000000   0.000000   0.000000   0.000000  -0.000000
   14  LI 1 XZ   -0.000000   0.000000  -0.210286   0.000000  -0.000000
   15  LI 1 YZ   -0.000000   0.000000   0.000000  -0.210286  -0.000000
   16  H  2  S    0.332697  -1.132451   0.000000   0.000000   0.048348
   17  H  2  S   -1.642725   1.322822   0.000000   0.000000  -0.840081
   18  H  2  X   -0.000000   0.000000   0.931731   0.000000  -0.000000
   19  H  2  Y   -0.000000   0.000000   0.000000   0.931731  -0.000000
   20  H  2  Z   -0.399356  -0.081558   0.000000   0.000000   0.911745

                     11         12         13         14         15
                    0.0001     0.0000     0.0000     0.0000     0.0000
                     A1         B2         B1         A1         A1  
    1  LI 1  S    0.016849  -0.000000  -0.000000   0.149125  -0.000000
    2  LI 1  S    6.575458  -0.000000  -0.000000   7.130651  -0.000000
    3  LI 1  X    0.000000  -0.000000  -1.323229   0.000000  -0.000000
    4  LI 1  Y    0.000000  -1.323229  -0.000000   0.000000  -0.000000
    5  LI 1  Z   -1.346796  -0.000000  -0.000000   1.069513  -0.000000
    6  LI 1  S   -2.920653  -0.000000  -0.000000  -1.548028  -0.000000
    7  LI 1  X    0.000000  -0.000000   1.397607   0.000000  -0.000000
    8  LI 1  Y    0.000000   1.397607  -0.000000   0.000000  -0.000000
    9  LI 1  Z    0.335430  -0.000000  -0.000000  -0.221204  -0.000000
   10  LI 1 XX   -1.804605  -0.000000  -0.000000  -2.649353   0.866025
   11  LI 1 YY   -1.804605  -0.000000  -0.000000  -2.649353  -0.866025
   12  LI 1 ZZ   -2.209981  -0.000000  -0.000000  -2.217572  -0.000000
   13  LI 1 XY    0.000000  -0.000000  -0.000000   0.000000  -0.000000
   14  LI 1 XZ    0.000000  -0.000000   0.505896   0.000000  -0.000000
   15  LI 1 YZ    0.000000   0.505896  -0.000000   0.000000  -0.000000
   16  H  2  S   -0.078909  -0.000000  -0.000000   0.264269  -0.000000
   17  H  2  S    1.045696  -0.000000  -0.000000  -1.066411  -0.000000
   18  H  2  X    0.000000  -0.000000  -0.169247   0.000000  -0.000000
   19  H  2  Y    0.000000  -0.169247  -0.000000   0.000000  -0.000000
   20  H  2  Z   -0.198269  -0.000000  -0.000000   0.097331  -0.000000

                     16         17         18         19         20
                    0.0000     0.0000     0.0000     0.0000     0.0000
                     A2         B2         B1         A1         A1  
    1  LI 1  S    0.000000   0.000000   0.000000  -0.088544   0.119668
    2  LI 1  S    0.000000   0.000000   0.000000  -0.781713   1.662963
    3  LI 1  X    0.000000   0.000000  -0.176264  -0.000000  -0.000000
    4  LI 1  Y    0.000000  -0.176264   0.000000  -0.000000  -0.000000
    5  LI 1  Z    0.000000   0.000000   0.000000  -0.344662  -0.122187
    6  LI 1  S    0.000000   0.000000   0.000000   0.102098  -1.433206
    7  LI 1  X    0.000000   0.000000   0.890238  -0.000000  -0.000000
    8  LI 1  Y    0.000000   0.890238   0.000000  -0.000000  -0.000000
    9  LI 1  Z    0.000000   0.000000   0.000000  -0.719711   0.865335
   10  LI 1 XX    0.000000   0.000000   0.000000   0.521657  -0.003880
   11  LI 1 YY    0.000000   0.000000   0.000000   0.521657  -0.003880
   12  LI 1 ZZ    0.000000   0.000000   0.000000  -1.346175  -0.640797
   13  LI 1 XY    1.000000   0.000000   0.000000  -0.000000  -0.000000
   14  LI 1 XZ    0.000000   0.000000  -0.655464  -0.000000  -0.000000
   15  LI 1 YZ    0.000000  -0.655464   0.000000  -0.000000  -0.000000
   16  H  2  S    0.000000   0.000000   0.000000   0.059761   0.221806
   17  H  2  S    0.000000   0.000000   0.000000   1.518595  -0.264227
   18  H  2  X    0.000000   0.000000   0.212580  -0.000000  -0.000000
   19  H  2  Y    0.000000   0.212580   0.000000  -0.000000  -0.000000
   20  H  2  Z    0.000000   0.000000   0.000000  -0.374782  -0.052630
 ..... DONE WITH ONE PARTICLE DENSITY MATRIX .....
 STEP CPU TIME =     0.00 TOTAL CPU TIME =        0.3 (    0.0 MIN)
 TOTAL WALL CLOCK TIME=        0.4 SECONDS, CPU UTILIZATION IS  76.74%

     --------------------------------------------------------
     ALDET CI PROPERTIES...FOR THE WAVEFUNCTION OF STATE    1
               USING THE EXPECTATION VALUE DENSITY
     --------------------------------------------------------

          -----------------
          ENERGY COMPONENTS
          -----------------

         WAVEFUNCTION NORMALIZATION =       1.0000000000

                ONE ELECTRON ENERGY =     -12.4186826532
                TWO ELECTRON ENERGY =       3.4175474254
           NUCLEAR REPULSION ENERGY =       0.9922073423
                                      ------------------
                       TOTAL ENERGY =      -8.0089278855

 ELECTRON-ELECTRON POTENTIAL ENERGY =       3.4175474254
  NUCLEUS-ELECTRON POTENTIAL ENERGY =     -20.4635949717
   NUCLEUS-NUCLEUS POTENTIAL ENERGY =       0.9922073423
                                      ------------------
             TOTAL POTENTIAL ENERGY =     -16.0538402040
               TOTAL KINETIC ENERGY =       8.0449123185
                 VIRIAL RATIO (V/T) =       1.9955270572

          ---------------------------------------
          MULLIKEN AND LOWDIN POPULATION ANALYSES
          ---------------------------------------

               ----- POPULATIONS IN EACH AO -----
                             MULLIKEN      LOWDIN
              1  LI 1  S      1.99791     1.98297
              2  LI 1  S      0.29028     0.19373
              3  LI 1  X      0.00264     0.00202
              4  LI 1  Y      0.00264     0.00202
              5  LI 1  Z      0.28023     0.25108
              6  LI 1  S      0.23224     0.21716
              7  LI 1  X     -0.00040     0.00021
              8  LI 1  Y     -0.00040     0.00021
              9  LI 1  Z     -0.00044     0.07149
             10  LI 1 XX     -0.00361     0.04305
             11  LI 1 YY     -0.00361     0.04305
             12  LI 1 ZZ      0.05441     0.18444
             13  LI 1 XY      0.00001     0.00001
             14  LI 1 XZ      0.00171     0.00169
             15  LI 1 YZ      0.00171     0.00169
             16  H  2  S      0.45198     0.42071
             17  H  2  S      0.68866     0.58016
             18  H  2  X      0.00103     0.00106
             19  H  2  Y      0.00103     0.00106
             20  H  2  Z      0.00196     0.00217

          ----- MULLIKEN ATOMIC OVERLAP POPULATIONS -----
          (OFF-DIAGONAL ELEMENTS NEED TO BE MULTIPLIED BY 2)

             1           2

    1    2.4940726
    2    0.3612604   0.7834066

          TOTAL MULLIKEN AND LOWDIN ATOMIC POPULATIONS
       ATOM         MULL.POP.    CHARGE          LOW.POP.     CHARGE
    1 LI            2.855333    0.144667         2.994838    0.005162
    2 H             1.144667   -0.144667         1.005162   -0.005162

          ---------------------
          ELECTROSTATIC MOMENTS
          ---------------------

 POINT   1           X           Y           Z (BOHR)    CHARGE
                 0.000000    0.000000    0.379772       -0.00 (A.U.)
         DX          DY          DZ         /D/  (DEBYE)
     0.000000    0.000000   -5.589069    5.589069
 ...... END OF PROPERTY EVALUATION ......
 STEP CPU TIME =     0.01 TOTAL CPU TIME =        0.3 (    0.0 MIN)
 TOTAL WALL CLOCK TIME=        0.4 SECONDS, CPU UTILIZATION IS  79.07%
               580000  WORDS OF DYNAMIC MEMORY USED
 EXECUTION OF GAMESS TERMINATED NORMALLY Thu Jan 17 17:45:51 2019
 DDI: 263640 bytes (0.3 MB / 0 MWords) used by master data server.

 ----------------------------------------
 CPU timing information for all processes
 ========================================
 0: 0.272 + 0.79 = 0.352
 1: 0.11 + 0.64 = 0.76
 ----------------------------------------
 ddikick.x: exited gracefully.
unset echo
----- accounting info -----
Files used on the master node bach.ad64.riken.go.jp were:
-rw-------@ 1 maho  staff      280  1 17 17:45 .//LiH.631g/1.6/LiH.631g.fullCI.1.6.gamess.F05
-rw-r--r--@ 1 maho  staff   180016  1 17 17:45 .//LiH.631g/1.6/LiH.631g.fullCI.1.6.gamess.F08
-rw-r--r--@ 1 maho  staff   181704  1 17 17:45 .//LiH.631g/1.6/LiH.631g.fullCI.1.6.gamess.F09
-rw-r--r--@ 1 maho  staff  1832320  1 17 17:45 .//LiH.631g/1.6/LiH.631g.fullCI.1.6.gamess.F10
-rw-r--r--@ 1 maho  staff    78640  1 17 17:45 .//LiH.631g/1.6/LiH.631g.fullCI.1.6.gamess.F12
-rw-r--r--@ 1 maho  staff    14499  1 17 17:45 .//LiH.631g/1.6/LiH.631g.fullCI.1.6.gamess.dat
-rw-------@ 1 maho  staff      280  1 17 17:45 .//LiH.631g/1.6/LiH.631g.fullCI.1.6.gamess.inp
-rw-r--r--@ 1 maho  staff    42452  1 17 17:45 .//LiH.631g/1.6/LiH.631g.fullCI.1.6.gamess.log
ls: No match.
ls: No match.
ls: No match.
2019年 1月17日 木曜日 17時45分54秒 JST
0.402u 0.260s 0:03.68 17.9%	0+0k 0+0io 0pf+0w
