----- GAMESS execution script 'rungms' -----
This job is running on host localhost
under operating system Linux at Thu Jan 17 18:39:00 JST 2019
Available scratch disk space (Kbyte units) at beginning of the job is
Filesystem     1K-blocks      Used Available Use% Mounted on
/dev/sda1      895286904 141745852 708040024  17% /
GAMESS temporary binary files will be written to .
GAMESS supplementary output files will be written to .
Copying input file N2.SV/3.6/N2.SV.fullCI.3.6.gamess.inp to your run's scratch directory...
cp N2.SV/3.6/N2.SV.fullCI.3.6.gamess.inp ./N2.SV/3.6/N2.SV.fullCI.3.6.gamess.F05
unset echo
/work/pubchem/pm6/pkg/gamess_intel/ddikick.x /work/pubchem/pm6/pkg/gamess_intel/gamess.00.x N2.SV/3.6/N2.SV.fullCI.3.6.gamess -ddi 12 12 localhost localhost localhost localhost localhost localhost localhost localhost localhost localhost localhost localhost -scr .

 Distributed Data Interface kickoff program.
 Initiating 12 compute processes on 12 nodes to run the following command:
 /work/pubchem/pm6/pkg/gamess_intel/gamess.00.x N2.SV/3.6/N2.SV.fullCI.3.6.gamess 

          ******************************************************
          *         GAMESS VERSION =  5 DEC 2014 (R1)          *
          *             FROM IOWA STATE UNIVERSITY             *
          * M.W.SCHMIDT, K.K.BALDRIDGE, J.A.BOATZ, S.T.ELBERT, *
          *   M.S.GORDON, J.H.JENSEN, S.KOSEKI, N.MATSUNAGA,   *
          *          K.A.NGUYEN, S.J.SU, T.L.WINDUS,           *
          *       TOGETHER WITH M.DUPUIS, J.A.MONTGOMERY       *
          *         J.COMPUT.CHEM.  14, 1347-1363(1993)        *
          **************** 64 BIT INTEL VERSION ****************

  SINCE 1993, STUDENTS AND POSTDOCS WORKING AT IOWA STATE UNIVERSITY
  AND ALSO IN THEIR VARIOUS JOBS AFTER LEAVING ISU HAVE MADE IMPORTANT
  CONTRIBUTIONS TO THE CODE:
     IVANA ADAMOVIC, CHRISTINE AIKENS, YURI ALEXEEV, POOJA ARORA,
     ANDREY ASADCHEV, ROB BELL, PRADIPTA BANDYOPADHYAY, JONATHAN BENTZ,
     BRETT BODE, KURT BRORSEN, CALEB CARLIN, GALINA CHABAN, WEI CHEN,
     CHEOL HO CHOI, PAUL DAY, ALBERT DEFUSCO, NUWAN DESILVA, TIM DUDLEY,
     DMITRI FEDOROV, GRAHAM FLETCHER, MARK FREITAG, KURT GLAESEMANN,
     DAN KEMP, GRANT MERRILL, NORIYUKI MINEZAWA, JONATHAN MULLIN,
     TAKESHI NAGATA, SEAN NEDD, HEATHER NETZLOFF, BOSILJKA NJEGIC, RYAN OLSON,
     MIKE PAK, SPENCER PRUITT, LUKE ROSKOP, JIM SHOEMAKER, LYUDMILA SLIPCHENKO,
     TONY SMITH, SAROM SOK, JIE SONG, TETSUYA TAKETSUGU, SIMON WEBB,
     PENG XU, SOOHAENG YOO, FEDERICO ZAHARIEV

  ADDITIONAL CODE HAS BEEN PROVIDED BY COLLABORATORS IN OTHER GROUPS:
     IOWA STATE UNIVERSITY:
          JOE IVANIC, AARON WEST, LAIMUTIS BYTAUTAS, KLAUS RUEDENBERG
     UNIVERSITY OF TOKYO: KIMIHIKO HIRAO, TAKAHITO NAKAJIMA,
          TAKAO TSUNEDA, MUNEAKI KAMIYA, SUSUMU YANAGISAWA,
          KIYOSHI YAGI, MAHITO CHIBA, SEIKEN TOKURA, NAOAKI KAWAKAMI
     UNIVERSITY OF AARHUS: FRANK JENSEN
     UNIVERSITY OF IOWA: VISVALDAS KAIRYS, HUI LI
     NATIONAL INST. OF STANDARDS AND TECHNOLOGY: WALT STEVENS, DAVID GARMER
     UNIVERSITY OF PISA: BENEDETTA MENNUCCI, JACOPO TOMASI
     UNIVERSITY OF MEMPHIS: HENRY KURTZ, PRAKASHAN KORAMBATH
     UNIVERSITY OF ALBERTA: TOBY ZENG, MARIUSZ KLOBUKOWSKI
     UNIVERSITY OF NEW ENGLAND: MARK SPACKMAN
     MIE UNIVERSITY: HIROAKI UMEDA
     NAT. INST. OF ADVANCED INDUSTRIAL SCIENCE AND TECHNOLOGY: KAZUO KITAURA
     MICHIGAN STATE UNIVERSITY:
          KAROL KOWALSKI, MARTA WLOCH, JEFFREY GOUR, JESSE LUTZ,
          WEI LI, PIOTR PIECUCH
     UNIVERSITY OF SILESIA: MONIKA MUSIAL, STANISLAW KUCHARSKI
     FACULTES UNIVERSITAIRES NOTRE-DAME DE LA PAIX:
          OLIVIER QUINET, BENOIT CHAMPAGNE
     UNIVERSITY OF CALIFORNIA - SANTA BARBARA: BERNARD KIRTMAN
     INSTITUTE FOR MOLECULAR SCIENCE:
          KAZUYA ISHIMURA, MICHIO KATOUDA, AND SHIGERU NAGASE
     UNIVERSITY OF NOTRE DAME: ANNA POMOGAEVA, DAN CHIPMAN
     KYUSHU UNIVERSITY:
          HARUYUKI NAKANO,
          FENG LONG GU, JACEK KORCHOWIEC, MARCIN MAKOWSKI, AND YURIKO AOKI,
          HIROTOSHI MORI AND EISAKU MIYOSHI
     PENNSYLVANIA STATE UNIVERSITY:
          TZVETELIN IORDANOV, CHET SWALINA, JONATHAN SKONE,
          SHARON HAMMES-SCHIFFER
     WASEDA UNIVERSITY:
          MASATO KOBAYASHI, TOMOKO AKAMA, TSUGUKI TOUMA,
          TAKESHI YOSHIKAWA, YASUHIRO IKABATA, HIROMI NAKAI
     NANJING UNIVERSITY: SHUHUA LI
     UNIVERSITY OF NEBRASKA:
          PEIFENG SU, DEJUN SI, NANDUN THELLAMUREGE, YALI WANG, HUI LI
     UNIVERSITY OF ZURICH: ROBERTO PEVERATI, KIM BALDRIDGE
     N. COPERNICUS UNIVERSITY AND JACKSON STATE UNIVERSITY:
          MARIA BARYSZ
     UNIVERSITY OF COPENHAGEN: CASPER STEINMANN
     TOKYO INSTITUTE OF TECHNOLOGY: HIROYA NAKATA
     NAGOYA UNIVERSITY: YOSHIO NISHIMOTO, STEPHAN IRLE


 PARALLEL VERSION RUNNING ON       12 PROCESSORS IN       12 NODES.

 EXECUTION OF GAMESS BEGUN Thu Jan 17 18:39:01 2019

            ECHO OF THE FIRST FEW INPUT CARDS -
 INPUT CARD> $CONTRL SCFTYP=RHF CITYP=ALDET $END                                            
 INPUT CARD> $GUESS GUESS=HUCKEL $END                                                       
 INPUT CARD> $SYSTEM MWORDS=300 $END                                                        
 INPUT CARD> $CIDET SZ=0 GROUP=C2V NCORE=2 NACT=16 NELS=10 NSTGSS=6 $END                    
 INPUT CARD> $DATA                                                                          
 INPUT CARD>N2...HF...Double-zeta basis                                                     
 INPUT CARD>Cnv   2                                                                         
 INPUT CARD>                                                                                
 INPUT CARD>N     7.0    0.0      0.0     0.0                                               
 INPUT CARD>S   7                                                                           
 INPUT CARD>  1   5909.0000000              0.0011900                                       
 INPUT CARD>  2    887.5000000              0.0090990                                       
 INPUT CARD>  3    204.7000000              0.0441450                                       
 INPUT CARD>  4     59.8400000              0.1504640                                       
 INPUT CARD>  5     20.0000000              0.3567410                                       
 INPUT CARD>  6      7.1930000              0.4465330                                       
 INPUT CARD>  7      2.6860000              0.1456030                                       
 INPUT CARD>S   2                                                                           
 INPUT CARD>  1      7.1930000             -0.1604050                                       
 INPUT CARD>  2      0.7000000              1.0582150                                       
 INPUT CARD>S   1                                                                           
 INPUT CARD>  1      0.2133000              1.0000000                                       
 INPUT CARD>P   4                                                                           
 INPUT CARD>  1     26.7900000              0.0182540                                       
 INPUT CARD>  2      5.9560000              0.1164610                                       
 INPUT CARD>  3      1.7070000              0.3901780                                       
 INPUT CARD>  4      0.5314000              0.6371020                                       
 INPUT CARD>P   1                                                                           
 INPUT CARD>  1      0.1654000              1.0000000                                       
 INPUT CARD>                                                                                
 INPUT CARD>N     7.0    0.0      0.0     3.6                                               
 INPUT CARD>S   7                                                                           
 INPUT CARD>  1   5909.0000000              0.0011900                                       
 INPUT CARD>  2    887.5000000              0.0090990                                       
 INPUT CARD>  3    204.7000000              0.0441450                                       
 INPUT CARD>  4     59.8400000              0.1504640                                       
 INPUT CARD>  5     20.0000000              0.3567410                                       
 INPUT CARD>  6      7.1930000              0.4465330                                       
 INPUT CARD>  7      2.6860000              0.1456030                                       
 INPUT CARD>S   2                                                                           
 INPUT CARD>  1      7.1930000             -0.1604050                                       
 INPUT CARD>  2      0.7000000              1.0582150                                       
 INPUT CARD>S   1                                                                           
 INPUT CARD>  1      0.2133000              1.0000000                                       
 INPUT CARD>P   4                                                                           
 INPUT CARD>  1     26.7900000              0.0182540                                       
 INPUT CARD>  2      5.9560000              0.1164610                                       
 INPUT CARD>  3      1.7070000              0.3901780                                       
 INPUT CARD>  4      0.5314000              0.6371020                                       
 INPUT CARD>P   1                                                                           
  300000000 WORDS OF MEMORY AVAILABLE


     RUN TITLE
     ---------
 N2...HF...Double-zeta basis                                                     

 THE POINT GROUP OF THE MOLECULE IS CNV     
 THE ORDER OF THE PRINCIPAL AXIS IS     2

 ATOM      ATOMIC                      COORDINATES (BOHR)
           CHARGE         X                   Y                   Z
 N           7.0     0.0000000000        0.0000000000        0.0000000000
 N           7.0     0.0000000000        0.0000000000        6.8030135558

          INTERNUCLEAR DISTANCES (ANGS.)
          ------------------------------

                1 N          2 N     

   1 N       0.0000000    3.6000000  
   2 N       3.6000000    0.0000000  

  * ... LESS THAN  3.000


     ATOMIC BASIS SET
     ----------------
 THE CONTRACTED PRIMITIVE FUNCTIONS HAVE BEEN UNNORMALIZED
 THE CONTRACTED BASIS FUNCTIONS ARE NOW NORMALIZED TO UNITY

  SHELL TYPE  PRIMITIVE        EXPONENT          CONTRACTION COEFFICIENT(S)

 N         

      1   S       1          5909.0000000    0.001189999548
      1   S       2           887.5000000    0.009098996542
      1   S       3           204.7000000    0.044144983225
      1   S       4            59.8400000    0.150463942825
      1   S       5            20.0000000    0.356740864442
      1   S       6             7.1930000    0.446532830321
      1   S       7             2.6860000    0.145602944672

      2   S       8             7.1930000   -0.160405033446
      2   S       9             0.7000000    1.058215220651

      3   S      10             0.2133000    1.000000000000

      4   P      11            26.7900000    0.018253998243
      4   P      12             5.9560000    0.116460988791
      4   P      13             1.7070000    0.390177962446
      4   P      14             0.5314000    0.637101938680

      5   P      15             0.1654000    1.000000000000

 N         

      6   S      16          5909.0000000    0.001189999548
      6   S      17           887.5000000    0.009098996542
      6   S      18           204.7000000    0.044144983225
      6   S      19            59.8400000    0.150463942825
      6   S      20            20.0000000    0.356740864442
      6   S      21             7.1930000    0.446532830321
      6   S      22             2.6860000    0.145602944672

      7   S      23             7.1930000   -0.160405033446
      7   S      24             0.7000000    1.058215220651

      8   S      25             0.2133000    1.000000000000

      9   P      26            26.7900000    0.018253998243
      9   P      27             5.9560000    0.116460988791
      9   P      28             1.7070000    0.390177962446
      9   P      29             0.5314000    0.637101938680

     10   P      30             0.1654000    1.000000000000

 TOTAL NUMBER OF BASIS SET SHELLS             =   10
 NUMBER OF CARTESIAN GAUSSIAN BASIS FUNCTIONS =   18
 NUMBER OF ELECTRONS                          =   14
 CHARGE OF MOLECULE                           =    0
 SPIN MULTIPLICITY                            =    1
 NUMBER OF OCCUPIED ORBITALS (ALPHA)          =    7
 NUMBER OF OCCUPIED ORBITALS (BETA )          =    7
 TOTAL NUMBER OF ATOMS                        =    2
 THE NUCLEAR REPULSION ENERGY IS        7.2026903369

 THIS MOLECULE IS RECOGNIZED AS BEING LINEAR,
 ORBITAL LZ DEGENERACY TOLERANCE ETOLLZ= 1.00E-06

     $CONTRL OPTIONS
     ---------------
 SCFTYP=RHF          RUNTYP=ENERGY       EXETYP=RUN     
 MPLEVL=       0     CITYP =ALDET        CCTYP =NONE         VBTYP =NONE    
 DFTTYP=NONE         TDDFT =NONE    
 MULT  =       1     ICHARG=       0     NZVAR =       0     COORD =UNIQUE  
 PP    =NONE         RELWFN=NONE         LOCAL =NONE         NUMGRD=       F
 ISPHER=      -1     NOSYM =       0     MAXIT =      30     UNITS =ANGS    
 PLTORB=       F     MOLPLT=       F     AIMPAC=       F     FRIEND=        
 NPRINT=       7     IREST =       0     GEOM  =INPUT   
 NORMF =       0     NORMP =       0     ITOL  =      20     ICUT  =       9
 INTTYP=BEST         GRDTYP=BEST         QMTTOL= 1.0E-06

     $SYSTEM OPTIONS
     ---------------
  REPLICATED MEMORY=   300000000 WORDS (ON EVERY NODE).
 DISTRIBUTED MEMDDI=           0 MILLION WORDS IN AGGREGATE,
 MEMDDI DISTRIBUTED OVER  12 PROCESSORS IS           0 WORDS/PROCESSOR.
 TOTAL MEMORY REQUESTED ON EACH PROCESSOR=   300000000 WORDS.
 TIMLIM=      525600.00 MINUTES, OR     365.0 DAYS.
 PARALL= T  BALTYP=  DLB     KDIAG=    0  COREFL= F
 MXSEQ2=     300 MXSEQ3=     150  mem10=         0

          ----------------
          PROPERTIES INPUT
          ----------------

     MOMENTS            FIELD           POTENTIAL          DENSITY
 IEMOM =       1   IEFLD =       0   IEPOT =       0   IEDEN =       0
 WHERE =COMASS     WHERE =NUCLEI     WHERE =NUCLEI     WHERE =NUCLEI  
 OUTPUT=BOTH       OUTPUT=BOTH       OUTPUT=BOTH       OUTPUT=BOTH    
 IEMINT=       0   IEFINT=       0                     IEDINT=       0
                                                       MORB  =       0
          EXTRAPOLATION IN EFFECT
          SOSCF IN EFFECT
 ORBITAL PRINTING OPTION: NPREO=     1    18     2     1

     -------------------------------
     INTEGRAL TRANSFORMATION OPTIONS
     -------------------------------
     NWORD  =            0
     CUTOFF = 1.0E-09     MPTRAN =       0
     DIRTRF =       F     AOINTS =DUP     

          ----------------------
          INTEGRAL INPUT OPTIONS
          ----------------------
 NOPK  =       1 NORDER=       0 SCHWRZ=       F

     ------------------------------------------
     THE POINT GROUP IS CNV, NAXIS= 2, ORDER= 4
     ------------------------------------------

     DIMENSIONS OF THE SYMMETRY SUBSPACES ARE
 A1  =   10     A2  =    0     B1  =    4     B2  =    4

 ..... DONE SETTING UP THE RUN .....
 CPU     0: STEP CPU TIME=     0.02 TOTAL CPU TIME=        0.0 (    0.0 MIN)
 TOTAL WALL CLOCK TIME=        0.0 SECONDS, CPU UTILIZATION IS 100.00%

          ********************
          1 ELECTRON INTEGRALS
          ********************
 ...... END OF ONE-ELECTRON INTEGRALS ......
 CPU     0: STEP CPU TIME=     0.00 TOTAL CPU TIME=        0.0 (    0.0 MIN)
 TOTAL WALL CLOCK TIME=        0.1 SECONDS, CPU UTILIZATION IS  25.00%

          -------------
          GUESS OPTIONS
          -------------
          GUESS =HUCKEL            NORB  =       0          NORDER=       0
          MIX   =       F          PRTMO =       F          PUNMO =       F
          TOLZ  = 1.0E-08          TOLE  = 1.0E-05
          SYMDEN=       F          PURIFY=       F

 INITIAL GUESS ORBITALS GENERATED BY HUCKEL   ROUTINE.
 HUCKEL GUESS REQUIRES      4352 WORDS.

 SYMMETRIES FOR INITIAL GUESS ORBITALS FOLLOW.   BOTH SET(S).
     7 ORBITALS ARE OCCUPIED (    2 CORE ORBITALS).
     3=A1       4=A1       5=A1       6=B1       7=B2       8=B1       9=B2  
    10=A1      11=A1      12=A1      13=A1      14=A1      15=B1      16=B1  
    17=B2  
 ...... END OF INITIAL ORBITAL SELECTION ......
 CPU     0: STEP CPU TIME=     0.00 TOTAL CPU TIME=        0.0 (    0.0 MIN)
 TOTAL WALL CLOCK TIME=        0.1 SECONDS, CPU UTILIZATION IS  25.00%

                    ----------------------
                    AO INTEGRAL TECHNOLOGY
                    ----------------------
     S,P,L SHELL ROTATED AXIS INTEGRALS, REPROGRAMMED BY
        KAZUYA ISHIMURA (IMS) AND JOSE SIERRA (SYNSTAR).
     S,P,D,L SHELL ROTATED AXIS INTEGRALS PROGRAMMED BY
        KAZUYA ISHIMURA (INSTITUTE FOR MOLECULAR SCIENCE).
     S,P,D,F,G SHELL TO TOTAL QUARTET ANGULAR MOMENTUM SUM 5,
        ERIC PROGRAM BY GRAHAM FLETCHER (ELORET AND NASA ADVANCED
        SUPERCOMPUTING DIVISION, AMES RESEARCH CENTER).
     S,P,D,F,G,L SHELL GENERAL RYS QUADRATURE PROGRAMMED BY
        MICHEL DUPUIS (PACIFIC NORTHWEST NATIONAL LABORATORY).

          --------------------
          2 ELECTRON INTEGRALS
          --------------------

 THE -PK- OPTION IS OFF, THE INTEGRALS ARE NOT IN SUPERMATRIX FORM.
 STORING   15000 INTEGRALS/RECORD ON DISK, USING 12 BYTES/INTEGRAL.
 TWO ELECTRON INTEGRAL EVALUATION REQUIRES   89411 WORDS OF MEMORY.
 II,JST,KST,LST =  1  1  1  1 NREC =         1 INTLOC =    1
 II,JST,KST,LST =  2  1  1  1 NREC =         1 INTLOC =    1
 II,JST,KST,LST =  3  1  1  1 NREC =         1 INTLOC =    2
 II,JST,KST,LST =  4  1  1  1 NREC =         1 INTLOC =    2
 II,JST,KST,LST =  5  1  1  1 NREC =         1 INTLOC =    2
 II,JST,KST,LST =  6  1  1  1 NREC =         1 INTLOC =   62
 II,JST,KST,LST =  7  1  1  1 NREC =         1 INTLOC =   62
 II,JST,KST,LST =  8  1  1  1 NREC =         1 INTLOC =   62
 II,JST,KST,LST =  9  1  1  1 NREC =         1 INTLOC =  107
 II,JST,KST,LST = 10  1  1  1 NREC =         1 INTLOC =  107
 TOTAL NUMBER OF NONZERO TWO-ELECTRON INTEGRALS =                3602
         12 INTEGRAL RECORDS WERE STORED ON DISK FILE  8.
  ...... END OF TWO-ELECTRON INTEGRALS .....
 CPU     0: STEP CPU TIME=     0.03 TOTAL CPU TIME=        0.0 (    0.0 MIN)
 TOTAL WALL CLOCK TIME=        0.1 SECONDS, CPU UTILIZATION IS  50.00%

          --------------------------
                 RHF SCF CALCULATION
          --------------------------

     NUCLEAR ENERGY =         7.2026903369
     MAXIT =   30     NPUNCH=    2
     EXTRAP=T  DAMP=F  SHIFT=F  RSTRCT=F  DIIS=F  DEM=F  SOSCF=T
     DENSITY MATRIX CONV=  1.00E-06
     SOSCF WILL OPTIMIZE      77 ORBITAL ROTATIONS, SOGTOL=   0.250
     MEMORY REQUIRED FOR RHF ITERS=     32828 WORDS.

 ITER EX DEM     TOTAL ENERGY        E CHANGE  DENSITY CHANGE     ORB. GRAD
   1  0  0     -107.7238836926  -107.7238836926   0.276966472   0.000000000
          ---------------START SECOND ORDER SCF---------------
   2  1  0     -107.9147663312    -0.1908826386   0.118979233   0.062335295
   3  2  0     -107.9303117355    -0.0155454043   0.025432580   0.024016633
   4  3  0     -107.9331938091    -0.0028820736   0.003067752   0.001812074
   5  4  0     -107.9332110294    -0.0000172203   0.001036819   0.000391634
   6  5  0     -107.9332120025    -0.0000009731   0.000037259   0.000028278
   7  6  0     -107.9332120088    -0.0000000062   0.000017215   0.000007283
   8  7  0     -107.9332120092    -0.0000000004   0.000001031   0.000000521
   9  8  0     -107.9332120092    -0.0000000000   0.000000054   0.000000038

          -----------------
          DENSITY CONVERGED
          -----------------
     TIME TO FORM FOCK OPERATORS=       0.0 SECONDS (       0.0 SEC/ITER)
     TIME TO SOLVE SCF EQUATIONS=       0.0 SECONDS (       0.0 SEC/ITER)

 FINAL RHF ENERGY IS     -107.9332120092 AFTER   9 ITERATIONS

 LZ VALUE ANALYSIS FOR THE MOS
 ----------------------------------------
 MO     1 (    1) HAS LZ(WEIGHT)= 0.00(100.0%) 
 MO     2 (    2) HAS LZ(WEIGHT)= 0.00(100.0%) 
 MO     3 (    3) HAS LZ(WEIGHT)= 0.00(100.0%) 
 MO     4 (    4) HAS LZ(WEIGHT)= 0.00(100.0%) 
 MO     5 (    5) HAS LZ(WEIGHT)= 0.00(100.0%) 
 MO     6 (    6) HAS LZ(WEIGHT)=-1.00( 50.0%)  1.00( 50.0%) 
 MO     7 (    6) HAS LZ(WEIGHT)=-1.00( 50.0%)  1.00( 50.0%) 
 MO     8 (    7) HAS LZ(WEIGHT)=-1.00( 50.0%)  1.00( 50.0%) 
 MO     9 (    7) HAS LZ(WEIGHT)=-1.00( 50.0%)  1.00( 50.0%) 
 MO    10 (    8) HAS LZ(WEIGHT)= 0.00(100.0%) 
 MO    11 (    9) HAS LZ(WEIGHT)= 0.00(100.0%) 
 MO    12 (   10) HAS LZ(WEIGHT)=-1.00( 50.0%)  1.00( 50.0%) 
 MO    13 (   10) HAS LZ(WEIGHT)=-1.00( 50.0%)  1.00( 50.0%) 
 MO    14 (   11) HAS LZ(WEIGHT)=-1.00( 50.0%)  1.00( 50.0%) 
 MO    15 (   11) HAS LZ(WEIGHT)=-1.00( 50.0%)  1.00( 50.0%) 
 MO    16 (   12) HAS LZ(WEIGHT)= 0.00(100.0%) 
 MO    17 (   13) HAS LZ(WEIGHT)= 0.00(100.0%) 
 MO    18 (   14) HAS LZ(WEIGHT)= 0.00(100.0%) 

          ------------
          EIGENVECTORS
          ------------

                      1          2          3          4          5
                  -15.8297   -15.8297    -1.0364    -1.0259    -0.3422
                     A1         A1         A1         A1         A1  
    1  N  1  S    0.706979   0.706984  -0.173111   0.173826  -0.004818
    2  N  1  S   -0.000154  -0.000149   0.408783  -0.414941   0.025081
    3  N  1  S    0.000924   0.000889   0.358836  -0.354103  -0.008363
    4  N  1  X    0.000000   0.000000   0.000000   0.000000   0.000000
    5  N  1  Y    0.000000   0.000000   0.000000   0.000000   0.000000
    6  N  1  Z    0.000151   0.000092   0.002952   0.010935  -0.486782
    7  N  1  X    0.000000   0.000000   0.000000   0.000000   0.000000
    8  N  1  Y    0.000000   0.000000   0.000000   0.000000   0.000000
    9  N  1  Z   -0.000046  -0.000051   0.005516   0.007196  -0.301053
   10  N  2  S    0.706979  -0.706984  -0.173111  -0.173826  -0.004818
   11  N  2  S   -0.000154   0.000149   0.408783   0.414941   0.025081
   12  N  2  S    0.000924  -0.000889   0.358836   0.354103  -0.008363
   13  N  2  X    0.000000   0.000000   0.000000   0.000000   0.000000
   14  N  2  Y    0.000000   0.000000   0.000000   0.000000   0.000000
   15  N  2  Z   -0.000151   0.000092  -0.002952   0.010935   0.486782
   16  N  2  X    0.000000   0.000000   0.000000   0.000000   0.000000
   17  N  2  Y    0.000000   0.000000   0.000000   0.000000   0.000000
   18  N  2  Z    0.000046  -0.000051  -0.005516   0.007196   0.301053

                      6          7          8          9         10
                   -0.3306    -0.3306    -0.1833    -0.1833    -0.1629
                     B2         B1         B2         B1         A1  
    1  N  1  S    0.000000   0.000000   0.000000   0.000000  -0.006350
    2  N  1  S    0.000000   0.000000   0.000000   0.000000   0.022851
    3  N  1  S    0.000000   0.000000   0.000000   0.000000   0.002425
    4  N  1  X    0.000000   0.504756   0.000000   0.509315   0.000000
    5  N  1  Y    0.504756   0.000000   0.509315   0.000000   0.000000
    6  N  1  Z    0.000000   0.000000   0.000000   0.000000   0.517437
    7  N  1  X    0.000000   0.293981   0.000000   0.292648   0.000000
    8  N  1  Y    0.293981   0.000000   0.292648   0.000000   0.000000
    9  N  1  Z    0.000000   0.000000   0.000000   0.000000   0.295800
   10  N  2  S    0.000000   0.000000   0.000000   0.000000   0.006350
   11  N  2  S    0.000000   0.000000   0.000000   0.000000  -0.022851
   12  N  2  S    0.000000   0.000000   0.000000   0.000000  -0.002425
   13  N  2  X    0.000000   0.504756   0.000000  -0.509315   0.000000
   14  N  2  Y    0.504756   0.000000  -0.509315   0.000000   0.000000
   15  N  2  Z    0.000000   0.000000   0.000000   0.000000   0.517437
   16  N  2  X    0.000000   0.293981   0.000000  -0.292648   0.000000
   17  N  2  Y    0.293981   0.000000  -0.292648   0.000000   0.000000
   18  N  2  Z    0.000000   0.000000   0.000000   0.000000   0.295800

                     11         12         13         14         15
                    0.5748     0.6218     0.6218     0.6593     0.6593
                     A1         B2         B1         B2         B1  
    1  N  1  S   -0.015817   0.000000   0.000000   0.000000   0.000000
    2  N  1  S    0.149364   0.000000   0.000000   0.000000   0.000000
    3  N  1  S   -0.127447   0.000000   0.000000   0.000000   0.000000
    4  N  1  X    0.000000   0.000000  -0.658444   0.000000  -0.661707
    5  N  1  Y    0.000000  -0.658444   0.000000  -0.661707   0.000000
    6  N  1  Z    0.653110   0.000000   0.000000   0.000000   0.000000
    7  N  1  X    0.000000   0.000000   0.766316   0.000000   0.791913
    8  N  1  Y    0.000000   0.766316   0.000000   0.791913   0.000000
    9  N  1  Z   -0.693223   0.000000   0.000000   0.000000   0.000000
   10  N  2  S   -0.015817   0.000000   0.000000   0.000000   0.000000
   11  N  2  S    0.149364   0.000000   0.000000   0.000000   0.000000
   12  N  2  S   -0.127447   0.000000   0.000000   0.000000   0.000000
   13  N  2  X    0.000000   0.000000  -0.658444   0.000000   0.661707
   14  N  2  Y    0.000000  -0.658444   0.000000   0.661707   0.000000
   15  N  2  Z   -0.653110   0.000000   0.000000   0.000000   0.000000
   16  N  2  X    0.000000   0.000000   0.766316   0.000000  -0.791913
   17  N  2  Y    0.000000   0.766316   0.000000  -0.791913   0.000000
   18  N  2  Z    0.693223   0.000000   0.000000   0.000000   0.000000

                     16         17         18
                    0.7234     0.8885     0.9572
                     A1         A1         A1  
    1  N  1  S   -0.029534  -0.090010   0.085037
    2  N  1  S    0.322414   1.095038  -1.068809
    3  N  1  S   -0.301133  -1.088519   1.078889
    4  N  1  X    0.000000   0.000000   0.000000
    5  N  1  Y    0.000000   0.000000   0.000000
    6  N  1  Z   -0.640304  -0.097399  -0.213549
    7  N  1  X    0.000000   0.000000   0.000000
    8  N  1  Y    0.000000   0.000000   0.000000
    9  N  1  Z    0.817506   0.135819   0.306036
   10  N  2  S    0.029534  -0.090010  -0.085037
   11  N  2  S   -0.322414   1.095038   1.068809
   12  N  2  S    0.301133  -1.088519  -1.078889
   13  N  2  X    0.000000   0.000000   0.000000
   14  N  2  Y    0.000000   0.000000   0.000000
   15  N  2  Z   -0.640304   0.097399  -0.213549
   16  N  2  X    0.000000   0.000000   0.000000
   17  N  2  Y    0.000000   0.000000   0.000000
   18  N  2  Z    0.817506  -0.135819   0.306036
 ...... END OF RHF CALCULATION ......
 CPU     0: STEP CPU TIME=     0.00 TOTAL CPU TIME=        0.0 (    0.0 MIN)
 TOTAL WALL CLOCK TIME=        0.1 SECONDS, CPU UTILIZATION IS  45.45%

     ----------------------------------------------------------------
     PROPERTY VALUES FOR THE RHF   SELF-CONSISTENT FIELD WAVEFUNCTION
     ----------------------------------------------------------------

          -----------------
          ENERGY COMPONENTS
          -----------------

         WAVEFUNCTION NORMALIZATION =       1.0000000000

                ONE ELECTRON ENERGY =    -160.8217726280
                TWO ELECTRON ENERGY =      45.6858702819
           NUCLEAR REPULSION ENERGY =       7.2026903369
                                      ------------------
                       TOTAL ENERGY =    -107.9332120092

 ELECTRON-ELECTRON POTENTIAL ENERGY =      45.6858702819
  NUCLEUS-ELECTRON POTENTIAL ENERGY =    -268.2553719771
   NUCLEUS-NUCLEUS POTENTIAL ENERGY =       7.2026903369
                                      ------------------
             TOTAL POTENTIAL ENERGY =    -215.3668113583
               TOTAL KINETIC ENERGY =     107.4335993491
                 VIRIAL RATIO (V/T) =       2.0046504321

  ...... PI ENERGY ANALYSIS ......

 ENERGY ANALYSIS:
            FOCK ENERGY=    -69.4500316583
          BARE H ENERGY=   -160.8217726280
     ELECTRONIC ENERGY =   -115.1359021432
         KINETIC ENERGY=    107.4335993491
          N-N REPULSION=      7.2026903369
           TOTAL ENERGY=   -107.9332118063
        SIGMA PART(1+2)=   -103.3012854214
               (K,V1,2)=    100.9891835629   -239.4640035155     35.1735345312
           PI PART(1+2)=    -11.8346167217
               (K,V1,2)=      6.4444157863    -28.7913684616     10.5123359536
  SIGMA SKELETON, ERROR=    -96.0985950846     -0.0000000000
             MIXED PART= 0.00000E+00 0.00000E+00 0.00000E+00 0.00000E+00
 ...... END OF PI ENERGY ANALYSIS ......

          ---------------------------------------
          MULLIKEN AND LOWDIN POPULATION ANALYSES
          ---------------------------------------

               ----- POPULATIONS IN EACH AO -----
                             MULLIKEN      LOWDIN
              1  N  1  S      2.00013     1.99716
              2  N  1  S      1.06970     1.03777
              3  N  1  S      0.92991     0.96447
              4  N  1  X      0.66647     0.64043
              5  N  1  Y      0.66647     0.64043
              6  N  1  Z      0.63313     0.60568
              7  N  1  X      0.33353     0.35957
              8  N  1  Y      0.33353     0.35957
              9  N  1  Z      0.36714     0.39492
             10  N  2  S      2.00013     1.99716
             11  N  2  S      1.06970     1.03777
             12  N  2  S      0.92991     0.96447
             13  N  2  X      0.66647     0.64043
             14  N  2  Y      0.66647     0.64043
             15  N  2  Z      0.63313     0.60568
             16  N  2  X      0.33353     0.35957
             17  N  2  Y      0.33353     0.35957
             18  N  2  Z      0.36714     0.39492

          ----- MULLIKEN ATOMIC OVERLAP POPULATIONS -----
          (OFF-DIAGONAL ELEMENTS NEED TO BE MULTIPLIED BY 2)

             1           2

    1    6.9549574
    2    0.0450426   6.9549574

          TOTAL MULLIKEN AND LOWDIN ATOMIC POPULATIONS
       ATOM         MULL.POP.    CHARGE          LOW.POP.     CHARGE
    1 N             7.000000    0.000000         7.000000    0.000000
    2 N             7.000000   -0.000000         7.000000   -0.000000

          ---------------------
          ELECTROSTATIC MOMENTS
          ---------------------

 POINT   1           X           Y           Z (BOHR)    CHARGE
                 0.000000    0.000000    3.401507       -0.00 (A.U.)
         DX          DY          DZ         /D/  (DEBYE)
     0.000000    0.000000   -0.000000    0.000000
 ...... END OF PROPERTY EVALUATION ......
 CPU     0: STEP CPU TIME=     0.00 TOTAL CPU TIME=        0.0 (    0.0 MIN)
 TOTAL WALL CLOCK TIME=        0.2 SECONDS, CPU UTILIZATION IS  33.33%

 DETERMINANT CI OPTIONS   NRNFG   NPFLG
 INTEGRAL TRANSFORMATION    1       0
 DIAGONALIZE HAMILTONIAN    1       0
 FORM 1E- DENSITY MATRIX    1       0
 FORM 2E- DENSITY MATRIX    0       0

     --------------------------------------------------
          AMES LABORATORY DETERMINANTAL FULL CI
     PROGRAM WRITTEN BY JOE IVANIC AND KLAUS RUEDENBERG
     --------------------------------------------------

 THE POINT GROUP                  =   C2V     
 THE STATE SYMMETRY               =   A1      
 NUMBER OF CORE ORBITALS          =    2
 NUMBER OF ACTIVE ORBITALS        =   16
 NUMBER OF ALPHA ELECTRONS        =    7 (   5 ACTIVE)
 NUMBER OF BETA ELECTRONS         =    7 (   5 ACTIVE)
 NUMBER OF OCCUPIED ORBITALS      =   18
 NUMBER OF CI STATES REQUESTED    =    1
 NUMBER OF CI STARTING VECTORS    =    6
 MAX. NO. OF CI EXPANSION VECTORS =   12
 SIZE OF INITIAL CI GUESS MATRIX  =  300
 MAX. NO. OF CI ITERS/STATE       =  100
 CI DIAGONALIZATION CRITERION     = 1.00E-06
 CI PROPERTIES WILL BE FOUND FOR ROOT NUMBER   1
 1E- DENSITY MATRIX OPTIONS ARE 1

 CORRELATION ENERGY ANALYSIS      =    F

 SYMMETRIES FOR THE   2 CORE,  16 ACTIVE ARE

     CORE= A1    A1  

   ACTIVE= A1    A1    A1    B2    B1    B2    B1    A1    A1    B2  
           B1    B2    B1    A1    A1    A1  

     --------------------------------------------
     PARTIAL TWO ELECTRON INTEGRAL TRANSFORMATION
     --------------------------------------------

 NUMBER OF CORE MOLECULAR ORBITALS     =    2
 NUMBER OF OCCUPIED MOLECULAR ORBITALS =   18
 TOTAL NUMBER OF MOLECULAR ORBITALS    =   18
 TOTAL NUMBER OF ATOMIC ORBITALS       =   18
 THRESHOLD FOR KEEPING TRANSFORMED 2E- INTEGRALS = 1.000E-09

 -------------------------------     ------------------------------
 DISTRIBUTED DATA TRANSFORMATION     PROGRAM WRITTEN BY G. FLETCHER
 -------------------------------     ------------------------------

 THE DISTRIBUTED MEMORY REQUIRED FOR THIS STEP IS MEMDDI=         1 MWORDS
 CREATING DISTRIBUTED STORAGE FOR [OCC OCC|OCC OCC] INTEGRALS
 DDI: Creating Array [0] - 171 x 171 = 29241 words.
 CREATING WORKSPACE OF SIZE VVOO
 DDI: Creating Array [1] - 171 x 171 = 29241 words.
 FOR   12 PROCESSORS, THE REPLICATED MEMORY NEEDED IS       58507 WORDS.

      DIRECT 4-INDEX TRANSFORMATION 
      SCHWARZ INEQUALITY TEST SKIPPED          0 INTEGRAL BLOCKS
 ----- FROZEN CORE ENERGY =       -92.9920517295
 ... END OF INTEGRAL TRANSFORMATION ...
 CPU     0: STEP CPU TIME=     0.01 TOTAL CPU TIME=        0.1 (    0.0 MIN)
 TOTAL WALL CLOCK TIME=        0.2 SECONDS, CPU UTILIZATION IS  30.00%

     --------------------------------------------------
          AMES LABORATORY DETERMINANTAL FULL CI
     PROGRAM WRITTEN BY JOE IVANIC AND KLAUS RUEDENBERG
     --------------------------------------------------

 THE NUMBER OF DETERMINANTS HAVING SPACE SYMMETRY A1 
 IN POINT GROUP C2V  WITH SZ=  0.0 IS        4777056
 THE DETERMINANT FULL CI REQUIRES       119865995 WORDS
 INITIAL CI VECTOR GUESS TIME  :          1.4
 INITIAL FULL CI ITERATION TIME:          5.8

 ITERATION      ENERGY           GRADIENT
     0     -108.7430110010     0.45631063
     1     -108.8427739735     0.18428295
     2     -108.8549508499     0.06903566
     3     -108.8564674652     0.03041447
     4     -108.8567722003     0.01539427
     5     -108.8568442996     0.00617294
     6     -108.8568548342     0.00222719
     7     -108.8568560968     0.00120065
     8     -108.8568565739     0.00108807
     9     -108.8568568775     0.00084167
    10     -108.8568570485     0.00052386
    11     -108.8568571152     0.00036650
    12     -108.8568571434     0.00021220
    13     -108.8568571518     0.00012985
    14     -108.8568571567     0.00010242
    15     -108.8568571604     0.00009488
    16     -108.8568571630     0.00008601
    17     -108.8568571653     0.00009288
    18     -108.8568571693     0.00011113
    19     -108.8568571735     0.00010452
    20     -108.8568571785     0.00012988
    21     -108.8568571872     0.00019144
    22     -108.8568572125     0.00031462
    23     -108.8568572991     0.00061115
    24     -108.8568575060     0.00109889
    25     -108.8568582102     0.00236572
    26     -108.8569223760     0.01482088
    27     -108.8569819349     0.00999377
    28     -108.8570010767     0.00585971
    29     -108.8570083957     0.00354154
    30     -108.8570114983     0.00228231
    31     -108.8570126923     0.00145490
    32     -108.8570133168     0.00113142
    33     -108.8570136462     0.00084018
    34     -108.8570138121     0.00048045
    35     -108.8570138739     0.00028651
    36     -108.8570138912     0.00021762
    37     -108.8570138991     0.00013402
    38     -108.8570139043     0.00008612
    39     -108.8570139066     0.00005968
    40     -108.8570139073     0.00003755
    41     -108.8570139077     0.00002646
    42     -108.8570139079     0.00002071
    43     -108.8570139080     0.00001234
    44     -108.8570139080     0.00000916
    45     -108.8570139080     0.00000739
    46     -108.8570139080     0.00000462
    47     -108.8570139080     0.00000309
    48     -108.8570139080     0.00000257
    49     -108.8570139080     0.00000152
    50     -108.8570139080     0.00000098

 CONVERGED STATE    1 ENERGY=     -108.8570139080 IN   50 ITERS

 ALL STATES CONVERGED.

 CI EIGENVECTORS WILL BE LABELED IN GROUP=C2V     
 PRINTING CI COEFFICIENTS LARGER THAN  0.050000

 STATE   1  ENERGY=      -108.8570139080  S=  0.00  SZ=  0.00  SPACE SYM=A1  

      ALPHA       |      BETA        | COEFFICIENT
------------------|------------------|------------
 1111100000000000 | 1111100000000000 |   0.2528217
 1111001000000000 | 1111001000000000 |  -0.2494809
 1110110000000000 | 1110110000000000 |  -0.2494809
 1110011000000000 | 1110011000000000 |   0.2462176
 1101100100000000 | 1101100100000000 |  -0.2336628
 1100110100000000 | 1100110100000000 |   0.2307639
 1101001100000000 | 1101001100000000 |   0.2307639
 1100011100000000 | 1100011100000000 |  -0.2279345
 1111010000000000 | 1110101000000000 |   0.1663012
 1110101000000000 | 1111010000000000 |   0.1663012
 1111000100000000 | 1101101000000000 |  -0.1605224
 1101101000000000 | 1111000100000000 |  -0.1605224
 1101110000000000 | 1110100100000000 |   0.1605224
 1110100100000000 | 1101110000000000 |   0.1605224
 1110010100000000 | 1100111000000000 |  -0.1584740
 1100111000000000 | 1110010100000000 |  -0.1584740
 1101011000000000 | 1110001100000000 |   0.1584740
 1110001100000000 | 1101011000000000 |   0.1584740
 1101010100000000 | 1100101100000000 |  -0.1538241
 1100101100000000 | 1101010100000000 |  -0.1538241
 1110110000000000 | 1111001000000000 |   0.0831750
 1111001000000000 | 1110110000000000 |   0.0831750
 1111100000000000 | 1110011000000000 |   0.0831262
 1110011000000000 | 1111100000000000 |   0.0831262
 1110110000000000 | 1101100100000000 |   0.0804080
 1101100100000000 | 1110110000000000 |   0.0804080
 1101100100000000 | 1111001000000000 |  -0.0804080
 1111001000000000 | 1101100100000000 |  -0.0804080
 1111100000000000 | 1100110100000000 |  -0.0801144
 1100110100000000 | 1111100000000000 |  -0.0801144
 1101001100000000 | 1111100000000000 |   0.0801144
 1111100000000000 | 1101001100000000 |   0.0801144
 1110011000000000 | 1101001100000000 |   0.0793831
 1101001100000000 | 1110011000000000 |   0.0793831
 1100110100000000 | 1110011000000000 |  -0.0793831
 1110011000000000 | 1100110100000000 |  -0.0793831
 1111001000000000 | 1100011100000000 |  -0.0790910
 1100011100000000 | 1111001000000000 |  -0.0790910
 1100011100000000 | 1110110000000000 |   0.0790910
 1110110000000000 | 1100011100000000 |   0.0790910
 1100110100000000 | 1101001100000000 |  -0.0769356
 1101001100000000 | 1100110100000000 |  -0.0769356
 1101100100000000 | 1100011100000000 |  -0.0768885
 1100011100000000 | 1101100100000000 |  -0.0768885
 ..... DONE WITH DETERMINANT CI COMPUTATION .....
 CPU     0: STEP CPU TIME=   132.92 TOTAL CPU TIME=      133.0 (    2.2 MIN)
 TOTAL WALL CLOCK TIME=      171.2 SECONDS, CPU UTILIZATION IS  77.69%

     ---------------------------
     ONE PARTICLE DENSITY MATRIX
     ---------------------------

 DENSITY MATRIX WILL BE SAVED FOR   1-TH STATE WITH S= 0.00

 CI EIGENSTATE   1 TOTAL ENERGY =     -108.8570139080

          NATURAL ORBITALS IN ATOMIC ORBITAL BASIS
          ----------------------------------------

                      1          2          3          4          5
                    2.0000     2.0000     1.9852     1.9845     1.0510
                     A1         A1         A1         A1         A1  
    1  N  1  S    0.706979   0.706984  -0.170702   0.171315  -0.001313
    2  N  1  S   -0.000154  -0.000149   0.379981  -0.383846   0.004276
    3  N  1  S    0.000924   0.000889   0.387247  -0.385264   0.002296
    4  N  1  X    0.000000   0.000000   0.000000   0.000000   0.000000
    5  N  1  Y    0.000000   0.000000   0.000000   0.000000   0.000000
    6  N  1  Z    0.000151   0.000092  -0.001898  -0.001783  -0.551251
    7  N  1  X    0.000000   0.000000   0.000000   0.000000   0.000000
    8  N  1  Y    0.000000   0.000000   0.000000   0.000000   0.000000
    9  N  1  Z   -0.000046  -0.000051   0.001836   0.002570  -0.228370
   10  N  2  S    0.706979  -0.706984  -0.170702  -0.171315  -0.001313
   11  N  2  S   -0.000154   0.000149   0.379981   0.383846   0.004276
   12  N  2  S    0.000924  -0.000889   0.387247   0.385264   0.002296
   13  N  2  X    0.000000   0.000000   0.000000   0.000000   0.000000
   14  N  2  Y    0.000000   0.000000   0.000000   0.000000   0.000000
   15  N  2  Z   -0.000151   0.000092   0.001898  -0.001783   0.551251
   16  N  2  X    0.000000   0.000000   0.000000   0.000000   0.000000
   17  N  2  Y    0.000000   0.000000   0.000000   0.000000   0.000000
   18  N  2  Z    0.000046  -0.000051  -0.001836   0.002570   0.228370

                      6          7          8          9         10
                    1.0044     1.0044     0.9866     0.9866     0.9402
                     B2         B1         B2         B1         A1  
    1  N  1  S    0.000000   0.000000   0.000000   0.000000  -0.001551
    2  N  1  S    0.000000   0.000000   0.000000   0.000000   0.004370
    3  N  1  S    0.000000   0.000000   0.000000   0.000000   0.002572
    4  N  1  X    0.000000   0.558357   0.000000   0.561747   0.000000
    5  N  1  Y    0.558357   0.000000   0.561747   0.000000   0.000000
    6  N  1  Z    0.000000   0.000000   0.000000   0.000000   0.569215
    7  N  1  X    0.000000   0.228474   0.000000   0.226874   0.000000
    8  N  1  Y    0.228474   0.000000   0.226874   0.000000   0.000000
    9  N  1  Z    0.000000   0.000000   0.000000   0.000000   0.226391
   10  N  2  S    0.000000   0.000000   0.000000   0.000000   0.001551
   11  N  2  S    0.000000   0.000000   0.000000   0.000000  -0.004370
   12  N  2  S    0.000000   0.000000   0.000000   0.000000  -0.002572
   13  N  2  X    0.000000   0.558357   0.000000  -0.561747   0.000000
   14  N  2  Y    0.558357   0.000000  -0.561747   0.000000   0.000000
   15  N  2  Z    0.000000   0.000000   0.000000   0.000000   0.569215
   16  N  2  X    0.000000   0.228474   0.000000  -0.226874   0.000000
   17  N  2  Y    0.228474   0.000000  -0.226874   0.000000   0.000000
   18  N  2  Z    0.000000   0.000000   0.000000   0.000000   0.226391

                     11         12         13         14         15
                    0.0113     0.0105     0.0066     0.0061     0.0061
                     A1         A1         A1         B2         B1  
    1  N  1  S   -0.095044  -0.094278  -0.012976   0.000000   0.000000
    2  N  1  S    1.098809   1.113047   0.193298   0.000000   0.000000
    3  N  1  S   -1.065820  -1.090802  -0.209794   0.000000   0.000000
    4  N  1  X    0.000000   0.000000   0.000000   0.000000  -0.613648
    5  N  1  Y    0.000000   0.000000   0.000000  -0.613648   0.000000
    6  N  1  Z    0.090198  -0.078706  -0.600822   0.000000   0.000000
    7  N  1  X    0.000000   0.000000   0.000000   0.000000   0.788330
    8  N  1  Y    0.000000   0.000000   0.000000   0.788330   0.000000
    9  N  1  Z   -0.091411   0.090877   0.727431   0.000000   0.000000
   10  N  2  S   -0.095044   0.094278  -0.012976   0.000000   0.000000
   11  N  2  S    1.098809  -1.113047   0.193298   0.000000   0.000000
   12  N  2  S   -1.065820   1.090802  -0.209794   0.000000   0.000000
   13  N  2  X    0.000000   0.000000   0.000000   0.000000  -0.613648
   14  N  2  Y    0.000000   0.000000   0.000000  -0.613648   0.000000
   15  N  2  Z   -0.090198  -0.078706   0.600822   0.000000   0.000000
   16  N  2  X    0.000000   0.000000   0.000000   0.000000   0.788330
   17  N  2  Y    0.000000   0.000000   0.000000   0.788330   0.000000
   18  N  2  Z    0.091411   0.090877  -0.727431   0.000000   0.000000

                     16         17         18
                    0.0057     0.0057     0.0050
                     B2         B1         A1  
    1  N  1  S    0.000000   0.000000   0.010948
    2  N  1  S    0.000000   0.000000  -0.181023
    3  N  1  S    0.000000   0.000000   0.204435
    4  N  1  X    0.000000  -0.617817   0.000000
    5  N  1  Y   -0.617817   0.000000   0.000000
    6  N  1  Z    0.000000   0.000000  -0.627096
    7  N  1  X    0.000000   0.813202   0.000000
    8  N  1  Y    0.813202   0.000000   0.000000
    9  N  1  Z    0.000000   0.000000   0.888822
   10  N  2  S    0.000000   0.000000  -0.010948
   11  N  2  S    0.000000   0.000000   0.181023
   12  N  2  S    0.000000   0.000000  -0.204435
   13  N  2  X    0.000000   0.617817   0.000000
   14  N  2  Y    0.617817   0.000000   0.000000
   15  N  2  Z    0.000000   0.000000  -0.627096
   16  N  2  X    0.000000  -0.813202   0.000000
   17  N  2  Y   -0.813202   0.000000   0.000000
   18  N  2  Z    0.000000   0.000000   0.888822
 ..... DONE WITH ONE PARTICLE DENSITY MATRIX .....
 CPU     0: STEP CPU TIME=     0.93 TOTAL CPU TIME=      133.9 (    2.2 MIN)
 TOTAL WALL CLOCK TIME=      172.1 SECONDS, CPU UTILIZATION IS  77.82%

     --------------------------------------------------------
     ALDET CI PROPERTIES...FOR THE WAVEFUNCTION OF STATE    1
               USING THE EXPECTATION VALUE DENSITY
     --------------------------------------------------------

          -----------------
          ENERGY COMPONENTS
          -----------------

         WAVEFUNCTION NORMALIZATION =       1.0000000000

                ONE ELECTRON ENERGY =    -162.0742710707
                TWO ELECTRON ENERGY =      46.0145668258
           NUCLEAR REPULSION ENERGY =       7.2026903369
                                      ------------------
                       TOTAL ENERGY =    -108.8570139080

 ELECTRON-ELECTRON POTENTIAL ENERGY =      46.0145668258
  NUCLEUS-ELECTRON POTENTIAL ENERGY =    -270.7852392741
   NUCLEUS-NUCLEUS POTENTIAL ENERGY =       7.2026903369
                                      ------------------
             TOTAL POTENTIAL ENERGY =    -217.5679821114
               TOTAL KINETIC ENERGY =     108.7109682034
                 VIRIAL RATIO (V/T) =       2.0013434312

          ---------------------------------------
          MULLIKEN AND LOWDIN POPULATION ANALYSES
          ---------------------------------------

               ----- POPULATIONS IN EACH AO -----
                             MULLIKEN      LOWDIN
              1  N  1  S      2.00012     1.99633
              2  N  1  S      0.98057     0.98296
              3  N  1  S      1.01482     1.01601
              4  N  1  X      0.75977     0.72080
              5  N  1  Y      0.75977     0.72080
              6  N  1  Z      0.75926     0.72023
              7  N  1  X      0.24164     0.28061
              8  N  1  Y      0.24164     0.28061
              9  N  1  Z      0.24240     0.28164
             10  N  2  S      2.00012     1.99633
             11  N  2  S      0.98057     0.98296
             12  N  2  S      1.01482     1.01601
             13  N  2  X      0.75977     0.72080
             14  N  2  Y      0.75977     0.72080
             15  N  2  Z      0.75926     0.72023
             16  N  2  X      0.24164     0.28061
             17  N  2  Y      0.24164     0.28061
             18  N  2  Z      0.24240     0.28164

          ----- MULLIKEN ATOMIC OVERLAP POPULATIONS -----
          (OFF-DIAGONAL ELEMENTS NEED TO BE MULTIPLIED BY 2)

             1           2

    1    6.9984787
    2    0.0015213   6.9984787

          TOTAL MULLIKEN AND LOWDIN ATOMIC POPULATIONS
       ATOM         MULL.POP.    CHARGE          LOW.POP.     CHARGE
    1 N             7.000000    0.000000         7.000000    0.000000
    2 N             7.000000    0.000000         7.000000    0.000000

          ---------------------
          ELECTROSTATIC MOMENTS
          ---------------------

 POINT   1           X           Y           Z (BOHR)    CHARGE
                 0.000000    0.000000    3.401507        0.00 (A.U.)
         DX          DY          DZ         /D/  (DEBYE)
     0.000000    0.000000   -0.000000    0.000000
 ...... END OF PROPERTY EVALUATION ......
 CPU     0: STEP CPU TIME=     0.00 TOTAL CPU TIME=      133.9 (    2.2 MIN)
 TOTAL WALL CLOCK TIME=      172.6 SECONDS, CPU UTILIZATION IS  77.59%
             119866847  WORDS OF DYNAMIC MEMORY USED
 EXECUTION OF GAMESS TERMINATED NORMALLY Thu Jan 17 18:41:54 2019
 DDI: 305760 bytes (0.3 MB / 0 MWords) used by master data server.

 ----------------------------------------
 CPU timing information for all processes
 ========================================
 0: 125.556 + 8.512 = 134.68
 1: 125.316 + 9.224 = 134.540
 2: 124.320 + 9.480 = 133.800
 3: 123.544 + 9.588 = 133.132
 4: 125.124 + 10.776 = 135.900
 5: 125.824 + 8.904 = 134.728
 6: 123.960 + 8.904 = 132.864
 7: 122.232 + 8.480 = 130.712
 8: 122.728 + 8.316 = 131.44
 9: 122.396 + 9.20 = 131.416
 10: 123.360 + 8.644 = 132.04
 11: 125.268 + 7.756 = 133.24
 12: 0.368 + 5.192 = 5.560
 13: 0.08 + 0.00 = 0.08
 14: 0.00 + 0.08 = 0.08
 15: 0.08 + 0.00 = 0.08
 16: 0.00 + 0.08 = 0.08
 17: 0.08 + 0.00 = 0.08
 18: 0.08 + 0.00 = 0.08
 19: 0.00 + 0.08 = 0.08
 20: 0.08 + 0.00 = 0.08
 21: 0.08 + 0.00 = 0.08
 22: 0.00 + 0.08 = 0.08
 23: 0.00 + 0.08 = 0.08
 ----------------------------------------
 ddikick.x: exited gracefully.
unset echo
----- accounting info -----
Files used on the master node localhost were:
-rw-rw-r-- 1 maho maho    13429 Jan 17 18:41 ./N2.SV/3.6/N2.SV.fullCI.3.6.gamess.dat
-rw------- 1 maho maho     1813 Jan 17 18:39 ./N2.SV/3.6/N2.SV.fullCI.3.6.gamess.F05
-rw-rw-r-- 1 maho maho   180016 Jan 17 18:39 ./N2.SV/3.6/N2.SV.fullCI.3.6.gamess.F08
-rw-rw-r-- 1 maho maho     1376 Jan 17 18:39 ./N2.SV/3.6/N2.SV.fullCI.3.6.gamess.F09
-rw-rw-r-- 1 maho maho  1865040 Jan 17 18:41 ./N2.SV/3.6/N2.SV.fullCI.3.6.gamess.F10
-rw-rw-r-- 1 maho maho 38216480 Jan 17 18:41 ./N2.SV/3.6/N2.SV.fullCI.3.6.gamess.F12
-rw------- 1 maho maho     1813 Jan 17 18:39 ./N2.SV/3.6/N2.SV.fullCI.3.6.gamess.inp
-rw-rw-r-- 1 maho maho    49310 Jan 17 18:41 ./N2.SV/3.6/N2.SV.fullCI.3.6.gamess.log
ls: No match.
ls: No match.
ls: No match.
Thu Jan 17 18:41:57 JST 2019
0.0u 0.0s 2:56.22 0.0% 0+0k 0+8io 0pf+0w
