----- GAMESS execution script 'rungms' -----
This job is running on host bach.ad64.riken.go.jp
under operating system Darwin at 2019年 1月17日 木曜日 17時52分17秒 JST
Available scratch disk space (Kbyte units) at beginning of the job is
Filesystem   1024-blocks       Used Available Capacity iused      ifree %iused  Mounted on
/dev/disk2s2  1953178672 1144746348 808432324    59%  984509 4293982770    0%   /Volumes/Users
GAMESS temporary binary files will be written to ./
GAMESS supplementary output files will be written to ./
Copying input file LiH.631g/4.3/LiH.631g.CCSDT.4.3.gamess.inp to your run's scratch directory...
cp LiH.631g/4.3/LiH.631g.CCSDT.4.3.gamess.inp .//LiH.631g/4.3/LiH.631g.CCSDT.4.3.gamess.F05
unset echo
/Volumes/Users/maho/bin/gamess//ddikick.x /Volumes/Users/maho/bin/gamess//gamess.00.x LiH.631g/4.3/LiH.631g.CCSDT.4.3.gamess -ddi 1 1 bach.ad64.riken.go.jp -scr ./

 Distributed Data Interface kickoff program.
 Initiating 1 compute processes on 1 nodes to run the following command:
 /Volumes/Users/maho/bin/gamess//gamess.00.x LiH.631g/4.3/LiH.631g.CCSDT.4.3.gamess 

          ******************************************************
          *         GAMESS VERSION = 18 AUG 2016 (R1)          *
          *             FROM IOWA STATE UNIVERSITY             *
          * M.W.SCHMIDT, K.K.BALDRIDGE, J.A.BOATZ, S.T.ELBERT, *
          *   M.S.GORDON, J.H.JENSEN, S.KOSEKI, N.MATSUNAGA,   *
          *          K.A.NGUYEN, S.J.SU, T.L.WINDUS,           *
          *       TOGETHER WITH M.DUPUIS, J.A.MONTGOMERY       *
          *         J.COMPUT.CHEM.  14, 1347-1363(1993)        *
          **************** 64 BIT APPLE VERSION ****************

  SINCE 1993, STUDENTS AND POSTDOCS WORKING AT IOWA STATE UNIVERSITY
  AND ALSO IN THEIR VARIOUS JOBS AFTER LEAVING ISU HAVE MADE IMPORTANT
  CONTRIBUTIONS TO THE CODE:
     IVANA ADAMOVIC, CHRISTINE AIKENS, YURI ALEXEEV, POOJA ARORA,
     ANDREY ASADCHEV, ROB BELL, PRADIPTA BANDYOPADHYAY, JONATHAN BENTZ,
     BRETT BODE, KURT BRORSEN, CALEB CARLIN, GALINA CHABAN, WEI CHEN,
     CHEOL HO CHOI, PAUL DAY, ALBERT DEFUSCO, NUWAN DESILVA, TIM DUDLEY,
     DMITRI FEDOROV, GRAHAM FLETCHER, MARK FREITAG, KURT GLAESEMANN,
     DAN KEMP, GRANT MERRILL, NORIYUKI MINEZAWA, JONATHAN MULLIN,
     TAKESHI NAGATA, SEAN NEDD, HEATHER NETZLOFF, BOSILJKA NJEGIC, RYAN OLSON,
     MIKE PAK, SPENCER PRUITT, LUKE ROSKOP, JIM SHOEMAKER, LYUDMILA SLIPCHENKO,
     TONY SMITH, SAROM SOK LEANG, JIE SONG, TETSUYA TAKETSUGU, SIMON WEBB,
     PENG XU, SOOHAENG YOO, FEDERICO ZAHARIEV

  ADDITIONAL CODE HAS BEEN PROVIDED BY COLLABORATORS IN OTHER GROUPS:
     IOWA STATE UNIVERSITY:
          JOE IVANIC, AARON WEST, LAIMUTIS BYTAUTAS, KLAUS RUEDENBERG
     UNIVERSITY OF TOKYO: KIMIHIKO HIRAO, TAKAHITO NAKAJIMA,
          TAKAO TSUNEDA, MUNEAKI KAMIYA, SUSUMU YANAGISAWA,
          KIYOSHI YAGI, MAHITO CHIBA, SEIKEN TOKURA, NAOAKI KAWAKAMI
     UNIVERSITY OF AARHUS: FRANK JENSEN
     UNIVERSITY OF IOWA: VISVALDAS KAIRYS, HUI LI
     NATIONAL INST. OF STANDARDS AND TECHNOLOGY: WALT STEVENS, DAVID GARMER
     UNIVERSITY OF PISA: BENEDETTA MENNUCCI, JACOPO TOMASI
     UNIVERSITY OF MEMPHIS: HENRY KURTZ, PRAKASHAN KORAMBATH
     UNIVERSITY OF ALBERTA: TOBY ZENG, MARIUSZ KLOBUKOWSKI
     UNIVERSITY OF NEW ENGLAND: MARK SPACKMAN
     MIE UNIVERSITY: HIROAKI UMEDA
     NAT. INST. OF ADVANCED INDUSTRIAL SCIENCE AND TECHNOLOGY: KAZUO KITAURA
     MICHIGAN STATE UNIVERSITY:
          KAROL KOWALSKI, MARTA WLOCH, JEFFREY GOUR, JESSE LUTZ,
          WEI LI, PIOTR PIECUCH
     UNIVERSITY OF SILESIA: MONIKA MUSIAL, STANISLAW KUCHARSKI
     FACULTES UNIVERSITAIRES NOTRE-DAME DE LA PAIX:
          OLIVIER QUINET, BENOIT CHAMPAGNE
     UNIVERSITY OF CALIFORNIA - SANTA BARBARA: BERNARD KIRTMAN
     INSTITUTE FOR MOLECULAR SCIENCE:
          KAZUYA ISHIMURA, MICHIO KATOUDA, AND SHIGERU NAGASE
     UNIVERSITY OF NOTRE DAME: ANNA POMOGAEVA, DAN CHIPMAN
     KYUSHU UNIVERSITY:
          HARUYUKI NAKANO,
          FENG LONG GU, JACEK KORCHOWIEC, MARCIN MAKOWSKI, AND YURIKO AOKI,
          HIROTOSHI MORI AND EISAKU MIYOSHI
     PENNSYLVANIA STATE UNIVERSITY:
          TZVETELIN IORDANOV, CHET SWALINA, JONATHAN SKONE,
          SHARON HAMMES-SCHIFFER
     WASEDA UNIVERSITY:
          MASATO KOBAYASHI, TOMOKO AKAMA, TSUGUKI TOUMA,
          TAKESHI YOSHIKAWA, YASUHIRO IKABATA, JUNJI SEINO,
          YUYA NAKAJIMA, HIROMI NAKAI
     NANJING UNIVERSITY: SHUHUA LI
     UNIVERSITY OF NEBRASKA:
          PEIFENG SU, DEJUN SI, NANDUN THELLAMUREGE, YALI WANG, HUI LI
     UNIVERSITY OF ZURICH: ROBERTO PEVERATI, KIM BALDRIDGE
     N. COPERNICUS UNIVERSITY AND JACKSON STATE UNIVERSITY:
          MARIA BARYSZ
     UNIVERSITY OF COPENHAGEN: Jimmy Kromann, CASPER STEINMANN
     TOKYO INSTITUTE OF TECHNOLOGY: HIROYA NAKATA
     NAGOYA UNIVERSITY: YOSHIO NISHIMOTO, STEPHAN IRLE
     MOSCOW STATE UNIVERSITY: VLADIMIR MIRONOV

 EXECUTION OF GAMESS BEGUN Thu Jan 17 17:52:18 2019

            ECHO OF THE FIRST FEW INPUT CARDS -
 INPUT CARD> $CONTRL MULT=1 SCFTYP=RHF CCTYP=CCSD(T) $END                                   
 INPUT CARD> $BASIS GBASIS=N31 NGAUSS=6 NDFUNC=1 NPFUNC=1 $END                              
 INPUT CARD> $CCINP NCORE=0 $END                                                            
 INPUT CARD> $GUESS GUESS=HUCKEL $END                                                       
 INPUT CARD> $DATA                                                                          
 INPUT CARD>LiH...HF...6-31G* basis                                                         
 INPUT CARD>Cnv   2                                                                         
 INPUT CARD>                                                                                
 INPUT CARD>Li    3.0    0.0      0.0     0.0                                               
 INPUT CARD>H     1.0    0.0      0.0     4.3                                               
 INPUT CARD> $END                                                                           
    1000000 WORDS OF MEMORY AVAILABLE

     BASIS OPTIONS
     -------------
     GBASIS=N31          IGAUSS=       6      POLAR=POPN31  
     NDFUNC=       1     NFFUNC=       0     DIFFSP=       F
     NPFUNC=       1      DIFFS=       F     BASNAM=        


     RUN TITLE
     ---------
 LiH...HF...6-31G* basis                                                         

 THE POINT GROUP OF THE MOLECULE IS CNV     
 THE ORDER OF THE PRINCIPAL AXIS IS     2

 ATOM      ATOMIC                      COORDINATES (BOHR)
           CHARGE         X                   Y                   Z
 LI          3.0     0.0000000000        0.0000000000        0.0000000000
 H           1.0     0.0000000000        0.0000000000        8.1258217472

          INTERNUCLEAR DISTANCES (ANGS.)
          ------------------------------

                1 LI         2 H     

   1 LI      0.0000000    4.3000000  
   2 H       4.3000000    0.0000000  

  * ... LESS THAN  3.000


     ATOMIC BASIS SET
     ----------------
 THE CONTRACTED PRIMITIVE FUNCTIONS HAVE BEEN UNNORMALIZED
 THE CONTRACTED BASIS FUNCTIONS ARE NOW NORMALIZED TO UNITY

  SHELL TYPE  PRIMITIVE        EXPONENT          CONTRACTION COEFFICIENT(S)

 LI        

      1   S       1           642.4189150    0.002142607810
      1   S       2            96.7985153    0.016208871501
      1   S       3            22.0911212    0.077315572504
      1   S       4             6.2010702    0.245786052013
      1   S       5             1.9351177    0.470189004025
      1   S       6             0.6367358    0.345470845019

      2   L       7             2.3249184   -0.035091745735    0.008941508043
      2   L       8             0.6324304   -0.191232843103    0.141009464046
      2   L       9             0.0790534    1.083987794916    0.945363695309

      3   L      10             0.0359620    1.000000000000    1.000000000000

      4   D      11             0.2000000    1.000000000000

 H         

      5   S      12            18.7311370    0.033494604338
      5   S      13             2.8253944    0.234726953484
      5   S      14             0.6401217    0.813757326146

      6   S      15             0.1612778    1.000000000000

      7   P      16             1.1000000    1.000000000000

 TOTAL NUMBER OF BASIS SET SHELLS             =    7
 NUMBER OF CARTESIAN GAUSSIAN BASIS FUNCTIONS =   20
 NUMBER OF ELECTRONS                          =    4
 CHARGE OF MOLECULE                           =    0
 SPIN MULTIPLICITY                            =    1
 NUMBER OF OCCUPIED ORBITALS (ALPHA)          =    2
 NUMBER OF OCCUPIED ORBITALS (BETA )          =    2
 TOTAL NUMBER OF ATOMS                        =    2
 THE NUCLEAR REPULSION ENERGY IS        0.3691934297

 THIS MOLECULE IS RECOGNIZED AS BEING LINEAR,
 ORBITAL LZ DEGENERACY TOLERANCE ETOLLZ= 1.00E-06

     $CONTRL OPTIONS
     ---------------
 SCFTYP=RHF          RUNTYP=ENERGY       EXETYP=RUN     
 MPLEVL=       0     CITYP =NONE         CCTYP =CCSD(T)      VBTYP =NONE    
 DFTTYP=NONE         TDDFT =NONE    
 MULT  =       1     ICHARG=       0     NZVAR =       0     COORD =UNIQUE  
 PP    =NONE         RELWFN=NONE         LOCAL =NONE         NUMGRD=       F
 ISPHER=      -1     NOSYM =       0     MAXIT =      30     UNITS =ANGS    
 PLTORB=       F     MOLPLT=       F     AIMPAC=       F     FRIEND=        
 NPRINT=       7     IREST =       0     GEOM  =INPUT   
 NORMF =       0     NORMP =       0     ITOL  =      20     ICUT  =       9
 INTTYP=BEST         GRDTYP=BEST         QMTTOL= 1.0E-06

     $SYSTEM OPTIONS
     ---------------
  REPLICATED MEMORY=     1000000 WORDS (ON EVERY NODE).
 DISTRIBUTED MEMDDI=           0 MILLION WORDS IN AGGREGATE,
 MEMDDI DISTRIBUTED OVER   1 PROCESSORS IS           0 WORDS/PROCESSOR.
 TOTAL MEMORY REQUESTED ON EACH PROCESSOR=     1000000 WORDS.
 TIMLIM=      525600.00 MINUTES, OR     365.0 DAYS.
 PARALL= F  BALTYP=  DLB     KDIAG=    0  COREFL= F
 MXSEQ2=     300 MXSEQ3=     150  mem10=         0

          ----------------
          PROPERTIES INPUT
          ----------------

     MOMENTS            FIELD           POTENTIAL          DENSITY
 IEMOM =       1   IEFLD =       0   IEPOT =       0   IEDEN =       0
 WHERE =COMASS     WHERE =NUCLEI     WHERE =NUCLEI     WHERE =NUCLEI  
 OUTPUT=BOTH       OUTPUT=BOTH       OUTPUT=BOTH       OUTPUT=BOTH    
 IEMINT=       0   IEFINT=       0                     IEDINT=       0
                                                       MORB  =       0
          EXTRAPOLATION IN EFFECT
          SOSCF IN EFFECT
 ORBITAL PRINTING OPTION: NPREO=     1    20     2     1

     -------------------------------
     INTEGRAL TRANSFORMATION OPTIONS
     -------------------------------
     NWORD  =            0
     CUTOFF = 1.0E-09     MPTRAN =       0
     DIRTRF =       F     AOINTS =DUP     

          ----------------------
          INTEGRAL INPUT OPTIONS
          ----------------------
 NOPK  =       1 NORDER=       0 SCHWRZ=       F

     ------------------------------------------
     THE POINT GROUP IS CNV, NAXIS= 2, ORDER= 4
     ------------------------------------------

     DIMENSIONS OF THE SYMMETRY SUBSPACES ARE
 A1  =   11     A2  =    1     B1  =    4     B2  =    4

 ..... DONE SETTING UP THE RUN .....
 STEP CPU TIME =     0.00 TOTAL CPU TIME =        0.0 (    0.0 MIN)
 TOTAL WALL CLOCK TIME=        0.0 SECONDS, CPU UTILIZATION IS   0.00%

          ********************
          1 ELECTRON INTEGRALS
          ********************
 ...... END OF ONE-ELECTRON INTEGRALS ......
 STEP CPU TIME =     0.00 TOTAL CPU TIME =        0.0 (    0.0 MIN)
 TOTAL WALL CLOCK TIME=        0.0 SECONDS, CPU UTILIZATION IS   0.00%

          -------------
          GUESS OPTIONS
          -------------
          GUESS =HUCKEL            NORB  =       0          NORDER=       0
          MIX   =       F          PRTMO =       F          PUNMO =       F
          TOLZ  = 1.0E-08          TOLE  = 1.0E-05
          SYMDEN=       F          PURIFY=       F

 INITIAL GUESS ORBITALS GENERATED BY HUCKEL   ROUTINE.
 HUCKEL GUESS REQUIRES      4469 WORDS.

 SYMMETRIES FOR INITIAL GUESS ORBITALS FOLLOW.   BOTH SET(S).
     2 ORBITALS ARE OCCUPIED (    1 CORE ORBITALS).
     2=A1       3=A1       4=A1       5=A1       6=A1       7=A1       8=A1  
     9=A1      10=A1      11=A1      12=A2  
 ...... END OF INITIAL ORBITAL SELECTION ......
 STEP CPU TIME =     0.00 TOTAL CPU TIME =        0.0 (    0.0 MIN)
 TOTAL WALL CLOCK TIME=        0.0 SECONDS, CPU UTILIZATION IS   0.00%

                    ----------------------
                    AO INTEGRAL TECHNOLOGY
                    ----------------------
     S,P,L SHELL ROTATED AXIS INTEGRALS, REPROGRAMMED BY
        KAZUYA ISHIMURA (IMS) AND JOSE SIERRA (SYNSTAR).
     S,P,D,L SHELL ROTATED AXIS INTEGRALS PROGRAMMED BY
        KAZUYA ISHIMURA (INSTITUTE FOR MOLECULAR SCIENCE).
     S,P,D,F,G SHELL TO TOTAL QUARTET ANGULAR MOMENTUM SUM 5,
        ERIC PROGRAM BY GRAHAM FLETCHER (ELORET AND NASA ADVANCED
        SUPERCOMPUTING DIVISION, AMES RESEARCH CENTER).
     S,P,D,F,G,L SHELL GENERAL RYS QUADRATURE PROGRAMMED BY
        MICHEL DUPUIS (PACIFIC NORTHWEST NATIONAL LABORATORY).

          --------------------
          2 ELECTRON INTEGRALS
          --------------------

 THE -PK- OPTION IS OFF, THE INTEGRALS ARE NOT IN SUPERMATRIX FORM.
 STORING   15000 INTEGRALS/RECORD ON DISK, USING 12 BYTES/INTEGRAL.
 TWO ELECTRON INTEGRAL EVALUATION REQUIRES   90424 WORDS OF MEMORY.
 II,JST,KST,LST =  1  1  1  1 NREC =         1 INTLOC =    1
 II,JST,KST,LST =  2  1  1  1 NREC =         1 INTLOC =    2
 II,JST,KST,LST =  3  1  1  1 NREC =         1 INTLOC =   34
 II,JST,KST,LST =  4  1  1  1 NREC =         1 INTLOC =  214
 II,JST,KST,LST =  5  1  1  1 NREC =         1 INTLOC = 1189
 II,JST,KST,LST =  6  1  1  1 NREC =         1 INTLOC = 1804
 II,JST,KST,LST =  7  1  1  1 NREC =         1 INTLOC = 2637
 TOTAL NUMBER OF NONZERO TWO-ELECTRON INTEGRALS =                5208
          1 INTEGRAL RECORDS WERE STORED ON DISK FILE  8.
  ...... END OF TWO-ELECTRON INTEGRALS .....
 STEP CPU TIME =     0.02 TOTAL CPU TIME =        0.0 (    0.0 MIN)
 TOTAL WALL CLOCK TIME=        0.0 SECONDS, CPU UTILIZATION IS  66.67%

          --------------------------
                 RHF SCF CALCULATION
          --------------------------

     NUCLEAR ENERGY =         0.3691934297
     MAXIT =   30     NPUNCH=    2
     EXTRAP=T  DAMP=F  SHIFT=F  RSTRCT=F  DIIS=F  DEM=F  SOSCF=T
     DENSITY MATRIX CONV=  1.00E-06
     SOSCF WILL OPTIMIZE      36 ORBITAL ROTATIONS, SOGTOL=   0.250
     MEMORY REQUIRED FOR RHF ITERS=     33224 WORDS.

 ITER EX DEM     TOTAL ENERGY        E CHANGE  DENSITY CHANGE     ORB. GRAD
   1  0  0       -7.5063991780    -7.5063991780   1.103873127   0.000000000
          ---------------START SECOND ORDER SCF---------------
 SOSCF IS SCALING ROTATION ANGLE MATRIX, SQCDF=    0.126136
   2  1  0       -7.4594361967     0.0469629813   0.585853612   0.067495077
 SOSCF IS SCALING ROTATION ANGLE MATRIX, SQCDF=    0.955965
   3  2  0       -7.6232702171    -0.1638340204   1.203050630   0.109664233
   4  3  0       -7.7263597032    -0.1030894860   0.333920982   0.098048199
   5  4  0       -7.7934441365    -0.0670844333   0.395580061   0.067512842
   6  5  0       -7.8259347370    -0.0324906005   0.154463803   0.024150942
   7  6  0       -7.8412585644    -0.0153238274   0.331103938   0.009906987
   8  7  0       -7.8340224739     0.0072360905   0.207091905   0.027174290
   9  8  0       -7.8445496563    -0.0105271824   0.031613015   0.005785475
  10  9  0       -7.8455450406    -0.0009953842   0.042350982   0.004364625
  11 10  0       -7.8459646419    -0.0004196014   0.013391049   0.001728802
  12 11  0       -7.8460046828    -0.0000400408   0.001933137   0.000522367
  13 12  0       -7.8460060382    -0.0000013555   0.000268918   0.000075849
  14 13  0       -7.8460060635    -0.0000000252   0.000043022   0.000002499
  15 14  0       -7.8460060635    -0.0000000001   0.000002790   0.000000642
  16 15  0       -7.8460060635    -0.0000000000   0.000000509   0.000000089
  17 16  0       -7.8460060635    -0.0000000000   0.000000000   0.000000003

 RHF HAS CONVERGED, NOW COMPUTING EXACT TOTAL FOCK MATRIX
 FOR USE DURING THE COUPLED CLUSTER CALCULATION THAT FOLLOWS.

          -----------------
          DENSITY CONVERGED
          -----------------
     TIME TO FORM FOCK OPERATORS=       0.0 SECONDS (       0.0 SEC/ITER)
     TIME TO SOLVE SCF EQUATIONS=       0.0 SECONDS (       0.0 SEC/ITER)

 FINAL RHF ENERGY IS       -7.8460060635 AFTER  17 ITERATIONS

 LZ VALUE ANALYSIS FOR THE MOS
 ----------------------------------------
 MO     1 (    1) HAS LZ(WEIGHT)= 0.00(100.0%) 
 MO     2 (    2) HAS LZ(WEIGHT)= 0.00(100.0%) 
 MO     3 (    3) HAS LZ(WEIGHT)= 0.00(100.0%) 
 MO     4 (    4) HAS LZ(WEIGHT)=-1.00( 50.0%)  1.00( 50.0%) 
 MO     5 (    4) HAS LZ(WEIGHT)=-1.00( 50.0%)  1.00( 50.0%) 
 MO     6 (    5) HAS LZ(WEIGHT)= 0.00(100.0%) 
 MO     7 (    6) HAS LZ(WEIGHT)= 0.00(100.0%) 
 MO     8 (    7) HAS LZ(WEIGHT)=-1.00( 50.0%)  1.00( 50.0%) 
 MO     9 (    7) HAS LZ(WEIGHT)=-1.00( 50.0%)  1.00( 50.0%) 
 MO    10 (    8) HAS LZ(WEIGHT)= 0.00(100.0%) 
 MO    11 (    9) HAS LZ(WEIGHT)=-2.00( 50.0%)  2.00( 50.0%) 
 MO    12 (    9) HAS LZ(WEIGHT)=-2.00( 50.0%)  2.00( 50.0%) 
 MO    13 (   10) HAS LZ(WEIGHT)=-1.00( 50.0%)  1.00( 50.0%) 
 MO    14 (   10) HAS LZ(WEIGHT)=-1.00( 50.0%)  1.00( 50.0%) 
 MO    15 (   11) HAS LZ(WEIGHT)= 0.00(100.0%) 
 MO    16 (   12) HAS LZ(WEIGHT)= 0.00(100.0%) 
 MO    17 (   13) HAS LZ(WEIGHT)= 0.00(100.0%) 
 MO    18 (   14) HAS LZ(WEIGHT)=-1.00( 50.0%)  1.00( 50.0%) 
 MO    19 (   14) HAS LZ(WEIGHT)=-1.00( 50.0%)  1.00( 50.0%) 
 MO    20 (   15) HAS LZ(WEIGHT)= 0.00(100.0%) 

          ------------
          EIGENVECTORS
          ------------

                      1          2          3          4          5
                   -2.5835    -0.1883    -0.0469     0.0228     0.0228
                     A1         A1         A1         B1         B2  
    1  LI 1  S    0.998763  -0.092101  -0.161494  -0.000000  -0.000000
    2  LI 1  S   -0.012308  -0.069419   0.081100  -0.000000  -0.000000
    3  LI 1  X    0.000000  -0.000000  -0.000000   0.235353  -0.000000
    4  LI 1  Y    0.000000  -0.000000  -0.000000  -0.000000   0.235353
    5  LI 1  Z   -0.002694  -0.012320  -0.094436  -0.000000  -0.000000
    6  LI 1  S    0.001953   0.481247   0.715470  -0.000000  -0.000000
    7  LI 1  X    0.000000  -0.000000  -0.000000   0.800959  -0.000000
    8  LI 1  Y    0.000000  -0.000000  -0.000000  -0.000000   0.800959
    9  LI 1  Z    0.001833   0.216748  -0.316278  -0.000000  -0.000000
   10  LI 1 XX    0.008800   0.027671   0.036928  -0.000000  -0.000000
   11  LI 1 YY    0.008800   0.027671   0.036928  -0.000000  -0.000000
   12  LI 1 ZZ    0.008668   0.041985   0.034167  -0.000000  -0.000000
   13  LI 1 XY    0.000000  -0.000000  -0.000000  -0.000000  -0.000000
   14  LI 1 XZ    0.000000  -0.000000  -0.000000  -0.025861  -0.000000
   15  LI 1 YZ    0.000000  -0.000000  -0.000000  -0.000000  -0.025861
   16  H  2  S    0.000048   0.240053  -0.106439  -0.000000  -0.000000
   17  H  2  S   -0.000206   0.598876  -0.272979  -0.000000  -0.000000
   18  H  2  X    0.000000  -0.000000  -0.000000   0.001002  -0.000000
   19  H  2  Y    0.000000  -0.000000  -0.000000  -0.000000   0.001002
   20  H  2  Z    0.000002  -0.001179  -0.000878  -0.000000  -0.000000

                      6          7          8          9         10
                    0.0568     0.1494     0.1665     0.1665     0.2154
                     A1         A1         B1         B2         A1  
    1  LI 1  S   -0.039803   0.058884  -0.000000  -0.000000   0.064507
    2  LI 1  S    0.527465   2.305564  -0.000000  -0.000000   2.256617
    3  LI 1  X   -0.000000  -0.000000   1.656201  -0.000000   0.000000
    4  LI 1  Y   -0.000000  -0.000000  -0.000000   1.656201   0.000000
    5  LI 1  Z    0.288606  -1.182333  -0.000000  -0.000000   1.195364
    6  LI 1  S   -0.159553  -1.801248  -0.000000  -0.000000  -1.805714
    7  LI 1  X   -0.000000  -0.000000  -1.469871  -0.000000   0.000000
    8  LI 1  Y   -0.000000  -0.000000  -0.000000  -1.469871   0.000000
    9  LI 1  Z    0.654864   0.985639  -0.000000  -0.000000  -1.241124
   10  LI 1 XX   -0.006528  -0.229629  -0.000000  -0.000000  -0.188455
   11  LI 1 YY   -0.006528  -0.229629  -0.000000  -0.000000  -0.188455
   12  LI 1 ZZ   -0.080115  -0.182304  -0.000000  -0.000000  -0.219442
   13  LI 1 XY   -0.000000  -0.000000  -0.000000  -0.000000   0.000000
   14  LI 1 XZ   -0.000000  -0.000000  -0.039366  -0.000000   0.000000
   15  LI 1 YZ   -0.000000  -0.000000  -0.000000  -0.039366   0.000000
   16  H  2  S   -0.109434   0.015017  -0.000000  -0.000000   0.046793
   17  H  2  S   -0.416023  -0.021705  -0.000000  -0.000000   0.348705
   18  H  2  X   -0.000000  -0.000000  -0.000969  -0.000000   0.000000
   19  H  2  Y   -0.000000  -0.000000  -0.000000  -0.000969   0.000000
   20  H  2  Z   -0.003242   0.001324  -0.000000  -0.000000   0.001761

                     11         12         13         14         15
                    0.4996     0.4996     0.5049     0.5049     0.5079
                     A1         A2         B2         B1         A1  
    1  LI 1  S   -0.000000   0.000000  -0.000000  -0.000000  -0.001410
    2  LI 1  S   -0.000000   0.000000  -0.000000  -0.000000   0.032571
    3  LI 1  X   -0.000000   0.000000  -0.000000   0.071368   0.000000
    4  LI 1  Y   -0.000000   0.000000   0.071368  -0.000000   0.000000
    5  LI 1  Z   -0.000000   0.000000  -0.000000  -0.000000   0.073991
    6  LI 1  S   -0.000000   0.000000  -0.000000  -0.000000  -0.001200
    7  LI 1  X   -0.000000   0.000000  -0.000000  -0.037197   0.000000
    8  LI 1  Y   -0.000000   0.000000  -0.037197  -0.000000   0.000000
    9  LI 1  Z   -0.000000   0.000000  -0.000000  -0.000000  -0.025019
   10  LI 1 XX   -0.866025   0.000000  -0.000000  -0.000000  -0.508677
   11  LI 1 YY    0.866025   0.000000  -0.000000  -0.000000  -0.508677
   12  LI 1 ZZ   -0.000000   0.000000  -0.000000  -0.000000   0.987397
   13  LI 1 XY   -0.000000   1.000000  -0.000000  -0.000000   0.000000
   14  LI 1 XZ   -0.000000   0.000000  -0.000000   0.998890   0.000000
   15  LI 1 YZ   -0.000000   0.000000   0.998890  -0.000000   0.000000
   16  H  2  S   -0.000000   0.000000  -0.000000  -0.000000  -0.043330
   17  H  2  S   -0.000000   0.000000  -0.000000  -0.000000  -0.002757
   18  H  2  X   -0.000000   0.000000  -0.000000   0.000295   0.000000
   19  H  2  Y   -0.000000   0.000000   0.000295  -0.000000   0.000000
   20  H  2  Z   -0.000000   0.000000  -0.000000  -0.000000  -0.001663

                     16         17         18         19         20
                    1.1534     1.1938     2.4657     2.4657     2.4700
                     A1         A1         B2         B1         A1  
    1  LI 1  S    0.105266   0.053813  -0.000000  -0.000000  -0.004545
    2  LI 1  S    8.923542   3.257154  -0.000000  -0.000000  -0.076617
    3  LI 1  X    0.000000  -0.000000  -0.000000   0.014118  -0.000000
    4  LI 1  Y    0.000000  -0.000000   0.014118  -0.000000  -0.000000
    5  LI 1  Z   -0.007801   0.135420  -0.000000  -0.000000  -0.033362
    6  LI 1  S   -2.735637  -1.190265  -0.000000  -0.000000   0.069980
    7  LI 1  X    0.000000  -0.000000  -0.000000  -0.019738  -0.000000
    8  LI 1  Y    0.000000  -0.000000  -0.019738  -0.000000  -0.000000
    9  LI 1  Z    0.028818  -0.246591  -0.000000  -0.000000   0.061344
   10  LI 1 XX   -2.983211  -0.999346  -0.000000  -0.000000   0.007730
   11  LI 1 YY   -2.983211  -0.999346  -0.000000  -0.000000   0.007730
   12  LI 1 ZZ   -2.970212  -1.062401  -0.000000  -0.000000   0.011443
   13  LI 1 XY    0.000000  -0.000000  -0.000000  -0.000000  -0.000000
   14  LI 1 XZ    0.000000  -0.000000  -0.000000  -0.000345  -0.000000
   15  LI 1 YZ    0.000000  -0.000000  -0.000345  -0.000000  -0.000000
   16  H  2  S    0.398613  -1.250019  -0.000000  -0.000000   0.013663
   17  H  2  S   -0.269490   1.117486  -0.000000  -0.000000  -0.027570
   18  H  2  X    0.000000  -0.000000  -0.000000   1.000055  -0.000000
   19  H  2  Y    0.000000  -0.000000   1.000055  -0.000000  -0.000000
   20  H  2  Z   -0.004375   0.003260  -0.000000  -0.000000   1.000781
 ...... END OF RHF CALCULATION ......
 STEP CPU TIME =     0.01 TOTAL CPU TIME =        0.0 (    0.0 MIN)
 TOTAL WALL CLOCK TIME=        0.0 SECONDS, CPU UTILIZATION IS  60.00%

     ----------------------------------------------------------------
     PROPERTY VALUES FOR THE RHF   SELF-CONSISTENT FIELD WAVEFUNCTION
     ----------------------------------------------------------------

          ---------------------------------------
          MULLIKEN AND LOWDIN POPULATION ANALYSES
          ---------------------------------------

               ----- POPULATIONS IN EACH AO -----
                             MULLIKEN      LOWDIN
              1  LI 1  S      1.99800     1.97966
              2  LI 1  S     -0.06519     0.09949
              3  LI 1  X      0.00000     0.00000
              4  LI 1  Y      0.00000     0.00000
              5  LI 1  Z     -0.00524     0.01790
              6  LI 1  S      0.50553     0.32458
              7  LI 1  X      0.00000     0.00000
              8  LI 1  Y      0.00000     0.00000
              9  LI 1  Z      0.16201     0.14084
             10  LI 1 XX      0.01734     0.02580
             11  LI 1 YY      0.01734     0.02580
             12  LI 1 ZZ      0.02696     0.03361
             13  LI 1 XY      0.00000     0.00000
             14  LI 1 XZ      0.00000     0.00000
             15  LI 1 YZ      0.00000     0.00000
             16  H  2  S      0.31945     0.39104
             17  H  2  S      1.02378     0.96120
             18  H  2  X      0.00000     0.00000
             19  H  2  Y      0.00000     0.00000
             20  H  2  Z      0.00003     0.00008

          ----- MULLIKEN ATOMIC OVERLAP POPULATIONS -----
          (OFF-DIAGONAL ELEMENTS NEED TO BE MULTIPLIED BY 2)

             1           2

    1    2.5245893
    2    0.1321511   1.2111084

          TOTAL MULLIKEN AND LOWDIN ATOMIC POPULATIONS
       ATOM         MULL.POP.    CHARGE          LOW.POP.     CHARGE
    1 LI            2.656740    0.343260         2.647683    0.352317
    2 H             1.343260   -0.343260         1.352317   -0.352317

          -------------------------------
          BOND ORDER AND VALENCE ANALYSIS     BOND ORDER THRESHOLD=0.050
          -------------------------------

                   BOND                       BOND                       BOND
  ATOM PAIR DIST  ORDER      ATOM PAIR DIST  ORDER      ATOM PAIR DIST  ORDER
    1   2  4.300  0.882

                       TOTAL       BONDED        FREE
      ATOM            VALENCE     VALENCE     VALENCE
    1 LI                0.882       0.882       0.000
    2 H                 0.882       0.882       0.000

          ---------------------
          ELECTROSTATIC MOMENTS
          ---------------------

 POINT   1           X           Y           Z (BOHR)    CHARGE
                 0.000000    0.000000    1.020636        0.00 (A.U.)
         DX          DY          DZ         /D/  (DEBYE)
     0.000000    0.000000  -11.645849   11.645849
 ...... END OF PROPERTY EVALUATION ......
 STEP CPU TIME =     0.01 TOTAL CPU TIME =        0.0 (    0.0 MIN)
 TOTAL WALL CLOCK TIME=        0.1 SECONDS, CPU UTILIZATION IS  66.67%

     ---------------------------
     COUPLED CLUSTER CALCULATION
     ---------------------------
 CCTYP                        =CCSD(T) 
 TOTAL NUMBER OF MOS          =    20
 NUMBER OF OCCUPIED MOS       =     2
 NUMBER OF FROZEN CORE MOS    =     0
 NUMBER OF FROZEN VIRTUAL MOS =     0
 MAXIMUM CC ITERATIONS        =    30
 MAXIMUM DIIS ITERATIONS      =     5
 CONVERGENCE CRITERION FOR CC =     7
 AMPLITUDE ACCURACY THRESHOLD = 0.0E+00

     --------------------------------------------
     PARTIAL TWO ELECTRON INTEGRAL TRANSFORMATION
     --------------------------------------------

 NUMBER OF CORE MOLECULAR ORBITALS     =    0
 NUMBER OF OCCUPIED MOLECULAR ORBITALS =   20
 TOTAL NUMBER OF MOLECULAR ORBITALS    =   20
 TOTAL NUMBER OF ATOMIC ORBITALS       =   20
 THRESHOLD FOR KEEPING TRANSFORMED 2E- INTEGRALS = 1.000E-09
 AO INTEGRALS WILL BE READ IN FROM DISK...

 PLAN A: REQUIREMENTS FOR FULLY IN-MEMORY TRANSFORMATION:
 # OF WORDS AVAILABLE =              1000000
 # OF WORDS NEEDED    =               146042

 CHOOSING IN MEMORY PARTIAL TRANSFORMATION...
 TOTAL NUMBER OF TRANSFORMED 2E- INTEGRALS KEPT =         5962
 ... END OF INTEGRAL TRANSFORMATION ...
 STEP CPU TIME =     0.00 TOTAL CPU TIME =        0.0 (    0.0 MIN)
 TOTAL WALL CLOCK TIME=        0.1 SECONDS, CPU UTILIZATION IS  66.67%

   -----------------------
   COUPLED-CLUSTER PROGRAM
   -----------------------

   -------------------------------------------------------
   P.PIECUCH, S.A.KUCHARSKI, M.WLOCH, K.KOWALSKI, M.MUSIAL
   -------------------------------------------------------

 *****************************************************************
 THE FOLLOWING PAPERS SHOULD BE CITED WHEN USING COUPLED-CLUSTER
 OPTIONS:

 CCTYP = LCCD, CCD, CCSD, CCSD(T)
 P. PIECUCH, S.A. KUCHARSKI, K. KOWALSKI, AND M. MUSIAL,
 COMP. PHYS. COMMUN. 149, 71-96 (2002).

 CCTYP = R-CC, CR-CC, CCSD(TQ), CR-CC(Q)
 P. PIECUCH, S.A. KUCHARSKI, K. KOWALSKI, AND M. MUSIAL,
 COMP. PHYS. COMMUN. 149, 71-96 (2002);
 K. KOWALSKI AND P. PIECUCH, J. CHEM. PHYS. 113, 18-35 (2000);
 K. KOWALSKI AND P. PIECUCH, J. CHEM. PHYS. 113, 5644-5652 (2000).

 CCTYP = EOM-CCSD, CR-EOM
 P. PIECUCH, S.A. KUCHARSKI, K. KOWALSKI, AND M. MUSIAL,
 COMP. PHYS. COMMUN. 149, 71-96 (2002);
 K. KOWALSKI AND P. PIECUCH, J. CHEM. PHYS. 120, 1715-1738 (2004);
 M. WLOCH, J.R. GOUR, K. KOWALSKI, AND P. PIECUCH,
 J. CHEM. PHYS. 122, 214107-1 - 214107-15 (2005).

 CCTYP = CR-CCL
 P. PIECUCH, S.A. KUCHARSKI, K. KOWALSKI, AND M. MUSIAL,
 COMP. PHYS. COMMUN. 149, 71-96 (2002);
 P. PIECUCH AND M. WLOCH, J. CHEM. PHYS. 123,
 224105-1 - 224105-10 (2005).

 CCTYP = CR-EOML
 P. PIECUCH, S.A. KUCHARSKI, K. KOWALSKI, AND M. MUSIAL,
 COMP. PHYS. COMMUN. 149, 71-96 (2002);
 P. PIECUCH, J. R. GOUR, AND M. WLOCH,
 INT. J. QUANTUM CHEM. 109, 3268-3304 (2009);
 K. KOWALSKI AND P. PIECUCH,
 J. CHEM. PHYS. 120, 1715-1738 (2004).

 IN ADDITION, THE USE OF CCPRP=.TRUE. IN $CCINP AND/OR THE USE
 OF CCPRPE=.TRUE. IN $EOMINP SHOULD REFERENCE

 M. WLOCH, J.R. GOUR, K. KOWALSKI, AND P. PIECUCH,
 J. CHEM. PHYS. 122, 214107-1 - 214107-15 (2005).
 *****************************************************************


 THE FOLLOWING CALCULATIONS WILL BE PERFORMED:
                                                     CCSD   
                                                     CCSD[T]
                                                     CCSD(T)

 THE FOLLOWING ENERGY WILL BE CONSIDERED THE HIGHEST LEVEL:    CCSD(T)
 THE AVAILABLE REPLICATED MEMORY IS     1000000 WORDS.
 CONVERGENCE THRESHOLD:   1.0E-07
 MAXIMUM NUMBER OF ITERATIONS:   30

 MEMORY TO BE USED IN CC INTEGRAL SORTING IS      140808 WORDS.
 THE MINIMUM MEMORY TO ACCOMPLISH SORTING IS       47496 WORDS.
         5962 NON-ZERO TRANSFORMED 2E- INTEGRALS WERE SORTED INTO FILE 72:
            6 [IJ|KL] TYPE,          48 [AJ|KL] TYPE,
          174 [AB|IJ] TYPE,         214 [IA|BJ] TYPE,
         1672 [AB|CI] TYPE,        3848 [AB|CD] TYPE.
 TRANSFORMED INTEGRAL FILE  9 WAS READ    3 TIMES.
 ....... DONE WITH CC INTEGRAL PREPARATION .......
 STEP CPU TIME =     0.00 TOTAL CPU TIME =        0.0 (    0.0 MIN)
 TOTAL WALL CLOCK TIME=        0.1 SECONDS, CPU UTILIZATION IS  44.44%

 MEMORY REQUIRED FOR THE CCSD ITERATIONS IS       23276 WORDS.
 ITER:  1   CCSD    CORR. ENERGY:  -0.0491559968   CONV.: -6.3611E-02
 ITER:  2   CCSD    CORR. ENERGY:  -0.0552075981   CONV.: -4.3692E-02
 ITER:  3   CCSD    CORR. ENERGY:  -0.0561876864   CONV.: -1.4371E-02
 ITER:  4   CCSD    CORR. ENERGY:  -0.0535238094   CONV.:  2.2882E-01
 ITER:  5   CCSD    CORR. ENERGY:  -0.0535411940   CONV.:  2.2860E-01
 ITER:  6   CCSD    CORR. ENERGY:  -0.0538950268   CONV.:  2.2810E-01
 ITER:  7   CCSD    CORR. ENERGY:  -0.0580735586   CONV.:  2.0706E-01
 ITER:  8   CCSD    CORR. ENERGY:  -0.0622715034   CONV.:  1.8790E-01
 ITER:  9   CCSD    CORR. ENERGY:  -0.1086185938   CONV.: -3.0895E-01
 ITER: 10   CCSD    CORR. ENERGY:  -0.0668148623   CONV.:  1.6189E-01
 ITER: 11   CCSD    CORR. ENERGY:  -0.0680368032   CONV.:  1.6843E-01
 ITER: 12   CCSD    CORR. ENERGY:  -0.0839486859   CONV.:  1.6572E-02
 ITER: 13   CCSD    CORR. ENERGY:  -0.0864974910   CONV.: -1.6921E-02
 ITER: 14   CCSD    CORR. ENERGY:  -0.0838242232   CONV.:  2.2653E-02
 ITER: 15   CCSD    CORR. ENERGY:  -0.0853368245   CONV.:  6.1346E-03
 ITER: 16   CCSD    CORR. ENERGY:  -0.0859778452   CONV.: -1.1453E-03
 ITER: 17   CCSD    CORR. ENERGY:  -0.0858584504   CONV.:  2.5422E-04
 ITER: 18   CCSD    CORR. ENERGY:  -0.0858619487   CONV.: -9.0075E-05
 ITER: 19   CCSD    CORR. ENERGY:  -0.0858598970   CONV.: -9.4539E-05
 ITER: 20   CCSD    CORR. ENERGY:  -0.0858592142   CONV.: -3.7784E-05
 ITER: 21   CCSD    CORR. ENERGY:  -0.0858621557   CONV.: -2.9664E-05
 ITER: 22   CCSD    CORR. ENERGY:  -0.0858627723   CONV.: -1.2443E-05
 ITER: 23   CCSD    CORR. ENERGY:  -0.0858640360   CONV.: -9.7179E-06
 ITER: 24   CCSD    CORR. ENERGY:  -0.0858638672   CONV.:  3.2120E-06
 ITER: 25   CCSD    CORR. ENERGY:  -0.0858640462   CONV.: -2.7985E-06
 ITER: 26   CCSD    CORR. ENERGY:  -0.0858640287   CONV.:  1.0537E-06
 ITER: 27   CCSD    CORR. ENERGY:  -0.0858640698   CONV.: -1.3827E-06
 ITER: 28   CCSD    CORR. ENERGY:  -0.0858640785   CONV.:  1.3776E-07
 ITER: 29   CCSD    CORR. ENERGY:  -0.0858640913   CONV.: -1.6665E-07
 ITER: 30   CCSD    CORR. ENERGY:  -0.0858640822   CONV.:  6.3188E-08

                  CCSD     ITERATIONS DID NOT CONVERGE


    MBPT(2) CORRELATION ENERGY:  -0.0395668833
    CCSD    CORRELATION ENERGY:  -0.0858640822

 T1 DIAGNOSTIC        =     0.24753200
 NORM OF THE T1 VECTOR=     0.49506400
 NORM OF THE T2 VECTOR=     0.99102293

 THE FIVE LARGEST T1 AMPLITUDES ARE:
 T1 AMPLITUDE IS  0.483098 FOR I=   2 -> A=   3
 T1 AMPLITUDE IS -0.077857 FOR I=   2 -> A=  10
 T1 AMPLITUDE IS -0.048439 FOR I=   2 -> A=  17
 T1 AMPLITUDE IS  0.043284 FOR I=   2 -> A=   6
 T1 AMPLITUDE IS  0.033849 FOR I=   2 -> A=   7

 THE FIVE LARGEST SPIN-UNIQUE T2 AMPLITUDES ARE:
 T2 AMPLITUDE IS -0.804519 FOR I,J=   2   2 -> A,B=   3   3
 T2 AMPLITUDE IS -0.378318 FOR I,J=   2   2 -> A,B=   3   6
 T2 AMPLITUDE IS -0.185663 FOR I,J=   2   2 -> A,B=   6   6
 T2 AMPLITUDE IS -0.062542 FOR I,J=   2   2 -> A,B=   3  17
 T2 AMPLITUDE IS -0.030708 FOR I,J=   2   2 -> A,B=   6  17
 PRINTED T2(I-ALPHA,J-BETA -> A-ALPHA,B-BETA) VALUES
 EQUAL   T2(J-ALPHA,I-BETA -> B-ALPHA,A-BETA) AMPLITUDES.

 ....... DONE WITH CC AMPLITUDE ITERATIONS .......
 STEP CPU TIME =     0.09 TOTAL CPU TIME =        0.1 (    0.0 MIN)
 TOTAL WALL CLOCK TIME=        0.2 SECONDS, CPU UTILIZATION IS  76.47%
 AMPLITUDE ITERATIONS DID NOT CONVERGE
 EXECUTION OF GAMESS TERMINATED -ABNORMALLY- AT Thu Jan 17 17:52:18 2019
               580000  WORDS OF DYNAMIC MEMORY USED
 STEP CPU TIME =     0.00 TOTAL CPU TIME =        0.1 (    0.0 MIN)
 TOTAL WALL CLOCK TIME=        0.2 SECONDS, CPU UTILIZATION IS  72.22%
 DDI Process 0: error code 911
 ddikick.x: application process 0 quit unexpectedly.
 ddikick.x: Fatal error detected.
 The error is most likely to be in the application, so check for
 input errors, disk space, memory needs, application bugs, etc.
 ddikick.x will now clean up all processes, and exit...
 DDI Process 1: terminated upon request.
 ddikick.x: Sending kill signal to DDI processes.
 ddikick.x: Execution terminated due to error(s).
unset echo
----- accounting info -----
Files used on the master node bach.ad64.riken.go.jp were:
-rw-------  1 maho  staff      258  1 17 17:52 .//LiH.631g/4.3/LiH.631g.CCSDT.4.3.gamess.F05
-rw-r--r--  1 maho  staff   180016  1 17 17:52 .//LiH.631g/4.3/LiH.631g.CCSDT.4.3.gamess.F08
-rw-r--r--  1 maho  staff   181704  1 17 17:52 .//LiH.631g/4.3/LiH.631g.CCSDT.4.3.gamess.F09
-rw-r--r--  1 maho  staff  1603280  1 17 17:52 .//LiH.631g/4.3/LiH.631g.CCSDT.4.3.gamess.F10
-rw-r--r--  1 maho  staff   388608  1 17 17:52 .//LiH.631g/4.3/LiH.631g.CCSDT.4.3.gamess.F70
-rw-r--r--  1 maho  staff   106560  1 17 17:52 .//LiH.631g/4.3/LiH.631g.CCSDT.4.3.gamess.F71
-rw-r--r--  1 maho  staff  2286144  1 17 17:52 .//LiH.631g/4.3/LiH.631g.CCSDT.4.3.gamess.F72
-rw-r--r--  1 maho  staff      864  1 17 17:52 .//LiH.631g/4.3/LiH.631g.CCSDT.4.3.gamess.F73
-rw-r--r--  1 maho  staff    20736  1 17 17:52 .//LiH.631g/4.3/LiH.631g.CCSDT.4.3.gamess.F74
-rw-r--r--  1 maho  staff        0  1 17 17:52 .//LiH.631g/4.3/LiH.631g.CCSDT.4.3.gamess.F75
-rw-r--r--  1 maho  staff        0  1 17 17:52 .//LiH.631g/4.3/LiH.631g.CCSDT.4.3.gamess.F76
-rw-r--r--  1 maho  staff        0  1 17 17:52 .//LiH.631g/4.3/LiH.631g.CCSDT.4.3.gamess.F77
-rw-r--r--  1 maho  staff     7352  1 17 17:52 .//LiH.631g/4.3/LiH.631g.CCSDT.4.3.gamess.dat
-rw-------  1 maho  staff      258  1 17 17:52 .//LiH.631g/4.3/LiH.631g.CCSDT.4.3.gamess.inp
-rw-r--r--  1 maho  staff    36011  1 17 17:52 .//LiH.631g/4.3/LiH.631g.CCSDT.4.3.gamess.log
ls: No match.
ls: No match.
ls: No match.
2019年 1月17日 木曜日 17時52分20秒 JST
0.212u 0.150s 0:02.61 13.7%	0+0k 7+4io 0pf+0w
