----- GAMESS execution script 'rungms' -----
This job is running on host localhost
under operating system Linux at Thu Jan 17 17:41:53 JST 2019
Available scratch disk space (Kbyte units) at beginning of the job is
Filesystem     1K-blocks      Used Available Use% Mounted on
/dev/sda1      895286904 141741304 708044572  17% /
GAMESS temporary binary files will be written to .
GAMESS supplementary output files will be written to .
Copying input file N2.SV/1.1/N2.SV.CCSDT.1.1.gamess.inp to your run's scratch directory...
cp N2.SV/1.1/N2.SV.CCSDT.1.1.gamess.inp ./N2.SV/1.1/N2.SV.CCSDT.1.1.gamess.F05
unset echo
/work/pubchem/pm6/pkg/gamess_intel/ddikick.x /work/pubchem/pm6/pkg/gamess_intel/gamess.00.x N2.SV/1.1/N2.SV.CCSDT.1.1.gamess -ddi 1 1 localhost -scr .

 Distributed Data Interface kickoff program.
 Initiating 1 compute processes on 1 nodes to run the following command:
 /work/pubchem/pm6/pkg/gamess_intel/gamess.00.x N2.SV/1.1/N2.SV.CCSDT.1.1.gamess 

          ******************************************************
          *         GAMESS VERSION =  5 DEC 2014 (R1)          *
          *             FROM IOWA STATE UNIVERSITY             *
          * M.W.SCHMIDT, K.K.BALDRIDGE, J.A.BOATZ, S.T.ELBERT, *
          *   M.S.GORDON, J.H.JENSEN, S.KOSEKI, N.MATSUNAGA,   *
          *          K.A.NGUYEN, S.J.SU, T.L.WINDUS,           *
          *       TOGETHER WITH M.DUPUIS, J.A.MONTGOMERY       *
          *         J.COMPUT.CHEM.  14, 1347-1363(1993)        *
          **************** 64 BIT INTEL VERSION ****************

  SINCE 1993, STUDENTS AND POSTDOCS WORKING AT IOWA STATE UNIVERSITY
  AND ALSO IN THEIR VARIOUS JOBS AFTER LEAVING ISU HAVE MADE IMPORTANT
  CONTRIBUTIONS TO THE CODE:
     IVANA ADAMOVIC, CHRISTINE AIKENS, YURI ALEXEEV, POOJA ARORA,
     ANDREY ASADCHEV, ROB BELL, PRADIPTA BANDYOPADHYAY, JONATHAN BENTZ,
     BRETT BODE, KURT BRORSEN, CALEB CARLIN, GALINA CHABAN, WEI CHEN,
     CHEOL HO CHOI, PAUL DAY, ALBERT DEFUSCO, NUWAN DESILVA, TIM DUDLEY,
     DMITRI FEDOROV, GRAHAM FLETCHER, MARK FREITAG, KURT GLAESEMANN,
     DAN KEMP, GRANT MERRILL, NORIYUKI MINEZAWA, JONATHAN MULLIN,
     TAKESHI NAGATA, SEAN NEDD, HEATHER NETZLOFF, BOSILJKA NJEGIC, RYAN OLSON,
     MIKE PAK, SPENCER PRUITT, LUKE ROSKOP, JIM SHOEMAKER, LYUDMILA SLIPCHENKO,
     TONY SMITH, SAROM SOK, JIE SONG, TETSUYA TAKETSUGU, SIMON WEBB,
     PENG XU, SOOHAENG YOO, FEDERICO ZAHARIEV

  ADDITIONAL CODE HAS BEEN PROVIDED BY COLLABORATORS IN OTHER GROUPS:
     IOWA STATE UNIVERSITY:
          JOE IVANIC, AARON WEST, LAIMUTIS BYTAUTAS, KLAUS RUEDENBERG
     UNIVERSITY OF TOKYO: KIMIHIKO HIRAO, TAKAHITO NAKAJIMA,
          TAKAO TSUNEDA, MUNEAKI KAMIYA, SUSUMU YANAGISAWA,
          KIYOSHI YAGI, MAHITO CHIBA, SEIKEN TOKURA, NAOAKI KAWAKAMI
     UNIVERSITY OF AARHUS: FRANK JENSEN
     UNIVERSITY OF IOWA: VISVALDAS KAIRYS, HUI LI
     NATIONAL INST. OF STANDARDS AND TECHNOLOGY: WALT STEVENS, DAVID GARMER
     UNIVERSITY OF PISA: BENEDETTA MENNUCCI, JACOPO TOMASI
     UNIVERSITY OF MEMPHIS: HENRY KURTZ, PRAKASHAN KORAMBATH
     UNIVERSITY OF ALBERTA: TOBY ZENG, MARIUSZ KLOBUKOWSKI
     UNIVERSITY OF NEW ENGLAND: MARK SPACKMAN
     MIE UNIVERSITY: HIROAKI UMEDA
     NAT. INST. OF ADVANCED INDUSTRIAL SCIENCE AND TECHNOLOGY: KAZUO KITAURA
     MICHIGAN STATE UNIVERSITY:
          KAROL KOWALSKI, MARTA WLOCH, JEFFREY GOUR, JESSE LUTZ,
          WEI LI, PIOTR PIECUCH
     UNIVERSITY OF SILESIA: MONIKA MUSIAL, STANISLAW KUCHARSKI
     FACULTES UNIVERSITAIRES NOTRE-DAME DE LA PAIX:
          OLIVIER QUINET, BENOIT CHAMPAGNE
     UNIVERSITY OF CALIFORNIA - SANTA BARBARA: BERNARD KIRTMAN
     INSTITUTE FOR MOLECULAR SCIENCE:
          KAZUYA ISHIMURA, MICHIO KATOUDA, AND SHIGERU NAGASE
     UNIVERSITY OF NOTRE DAME: ANNA POMOGAEVA, DAN CHIPMAN
     KYUSHU UNIVERSITY:
          HARUYUKI NAKANO,
          FENG LONG GU, JACEK KORCHOWIEC, MARCIN MAKOWSKI, AND YURIKO AOKI,
          HIROTOSHI MORI AND EISAKU MIYOSHI
     PENNSYLVANIA STATE UNIVERSITY:
          TZVETELIN IORDANOV, CHET SWALINA, JONATHAN SKONE,
          SHARON HAMMES-SCHIFFER
     WASEDA UNIVERSITY:
          MASATO KOBAYASHI, TOMOKO AKAMA, TSUGUKI TOUMA,
          TAKESHI YOSHIKAWA, YASUHIRO IKABATA, HIROMI NAKAI
     NANJING UNIVERSITY: SHUHUA LI
     UNIVERSITY OF NEBRASKA:
          PEIFENG SU, DEJUN SI, NANDUN THELLAMUREGE, YALI WANG, HUI LI
     UNIVERSITY OF ZURICH: ROBERTO PEVERATI, KIM BALDRIDGE
     N. COPERNICUS UNIVERSITY AND JACKSON STATE UNIVERSITY:
          MARIA BARYSZ
     UNIVERSITY OF COPENHAGEN: CASPER STEINMANN
     TOKYO INSTITUTE OF TECHNOLOGY: HIROYA NAKATA
     NAGOYA UNIVERSITY: YOSHIO NISHIMOTO, STEPHAN IRLE

 EXECUTION OF GAMESS BEGUN Thu Jan 17 17:41:53 2019

            ECHO OF THE FIRST FEW INPUT CARDS -
 INPUT CARD> $CONTRL SCFTYP=RHF CCTYP=CCSD(T) $END                                          
 INPUT CARD> $CCINP NCORE=1 $END                                                            
 INPUT CARD> $GUESS GUESS=HUCKEL $END                                                       
 INPUT CARD> $DATA                                                                          
 INPUT CARD>N2...CCSD(T)...Double-zeta basis                                                
 INPUT CARD>Cnv   2                                                                         
 INPUT CARD>                                                                                
 INPUT CARD>N     7.0    0.0      0.0     0.0                                               
 INPUT CARD>S   7                                                                           
 INPUT CARD>  1   5909.0000000              0.0011900                                       
 INPUT CARD>  2    887.5000000              0.0090990                                       
 INPUT CARD>  3    204.7000000              0.0441450                                       
 INPUT CARD>  4     59.8400000              0.1504640                                       
 INPUT CARD>  5     20.0000000              0.3567410                                       
 INPUT CARD>  6      7.1930000              0.4465330                                       
 INPUT CARD>  7      2.6860000              0.1456030                                       
 INPUT CARD>S   2                                                                           
 INPUT CARD>  1      7.1930000             -0.1604050                                       
 INPUT CARD>  2      0.7000000              1.0582150                                       
 INPUT CARD>S   1                                                                           
 INPUT CARD>  1      0.2133000              1.0000000                                       
 INPUT CARD>P   4                                                                           
 INPUT CARD>  1     26.7900000              0.0182540                                       
 INPUT CARD>  2      5.9560000              0.1164610                                       
 INPUT CARD>  3      1.7070000              0.3901780                                       
 INPUT CARD>  4      0.5314000              0.6371020                                       
 INPUT CARD>P   1                                                                           
 INPUT CARD>  1      0.1654000              1.0000000                                       
 INPUT CARD>                                                                                
 INPUT CARD>N     7.0    0.0      0.0     1.1                                               
 INPUT CARD>S   7                                                                           
 INPUT CARD>  1   5909.0000000              0.0011900                                       
 INPUT CARD>  2    887.5000000              0.0090990                                       
 INPUT CARD>  3    204.7000000              0.0441450                                       
 INPUT CARD>  4     59.8400000              0.1504640                                       
 INPUT CARD>  5     20.0000000              0.3567410                                       
 INPUT CARD>  6      7.1930000              0.4465330                                       
 INPUT CARD>  7      2.6860000              0.1456030                                       
 INPUT CARD>S   2                                                                           
 INPUT CARD>  1      7.1930000             -0.1604050                                       
 INPUT CARD>  2      0.7000000              1.0582150                                       
 INPUT CARD>S   1                                                                           
 INPUT CARD>  1      0.2133000              1.0000000                                       
 INPUT CARD>P   4                                                                           
 INPUT CARD>  1     26.7900000              0.0182540                                       
 INPUT CARD>  2      5.9560000              0.1164610                                       
 INPUT CARD>  3      1.7070000              0.3901780                                       
 INPUT CARD>  4      0.5314000              0.6371020                                       
 INPUT CARD>P   1                                                                           
 INPUT CARD>  1      0.1654000              1.0000000                                       
    1000000 WORDS OF MEMORY AVAILABLE


     RUN TITLE
     ---------
 N2...CCSD(T)...Double-zeta basis                                                

 THE POINT GROUP OF THE MOLECULE IS CNV     
 THE ORDER OF THE PRINCIPAL AXIS IS     2

 ATOM      ATOMIC                      COORDINATES (BOHR)
           CHARGE         X                   Y                   Z
 N           7.0     0.0000000000        0.0000000000        0.0000000000
 N           7.0     0.0000000000        0.0000000000        2.0786985865

          INTERNUCLEAR DISTANCES (ANGS.)
          ------------------------------

                1 N          2 N     

   1 N       0.0000000    1.1000000 *
   2 N       1.1000000 *  0.0000000  

  * ... LESS THAN  3.000


     ATOMIC BASIS SET
     ----------------
 THE CONTRACTED PRIMITIVE FUNCTIONS HAVE BEEN UNNORMALIZED
 THE CONTRACTED BASIS FUNCTIONS ARE NOW NORMALIZED TO UNITY

  SHELL TYPE  PRIMITIVE        EXPONENT          CONTRACTION COEFFICIENT(S)

 N         

      1   S       1          5909.0000000    0.001189999548
      1   S       2           887.5000000    0.009098996542
      1   S       3           204.7000000    0.044144983225
      1   S       4            59.8400000    0.150463942825
      1   S       5            20.0000000    0.356740864442
      1   S       6             7.1930000    0.446532830321
      1   S       7             2.6860000    0.145602944672

      2   S       8             7.1930000   -0.160405033446
      2   S       9             0.7000000    1.058215220651

      3   S      10             0.2133000    1.000000000000

      4   P      11            26.7900000    0.018253998243
      4   P      12             5.9560000    0.116460988791
      4   P      13             1.7070000    0.390177962446
      4   P      14             0.5314000    0.637101938680

      5   P      15             0.1654000    1.000000000000

 N         

      6   S      16          5909.0000000    0.001189999548
      6   S      17           887.5000000    0.009098996542
      6   S      18           204.7000000    0.044144983225
      6   S      19            59.8400000    0.150463942825
      6   S      20            20.0000000    0.356740864442
      6   S      21             7.1930000    0.446532830321
      6   S      22             2.6860000    0.145602944672

      7   S      23             7.1930000   -0.160405033446
      7   S      24             0.7000000    1.058215220651

      8   S      25             0.2133000    1.000000000000

      9   P      26            26.7900000    0.018253998243
      9   P      27             5.9560000    0.116460988791
      9   P      28             1.7070000    0.390177962446
      9   P      29             0.5314000    0.637101938680

     10   P      30             0.1654000    1.000000000000

 TOTAL NUMBER OF BASIS SET SHELLS             =   10
 NUMBER OF CARTESIAN GAUSSIAN BASIS FUNCTIONS =   18
 NUMBER OF ELECTRONS                          =   14
 CHARGE OF MOLECULE                           =    0
 SPIN MULTIPLICITY                            =    1
 NUMBER OF OCCUPIED ORBITALS (ALPHA)          =    7
 NUMBER OF OCCUPIED ORBITALS (BETA )          =    7
 TOTAL NUMBER OF ATOMS                        =    2
 THE NUCLEAR REPULSION ENERGY IS       23.5724411025

 THIS MOLECULE IS RECOGNIZED AS BEING LINEAR,
 ORBITAL LZ DEGENERACY TOLERANCE ETOLLZ= 1.00E-06

     $CONTRL OPTIONS
     ---------------
 SCFTYP=RHF          RUNTYP=ENERGY       EXETYP=RUN     
 MPLEVL=       0     CITYP =NONE         CCTYP =CCSD(T)      VBTYP =NONE    
 DFTTYP=NONE         TDDFT =NONE    
 MULT  =       1     ICHARG=       0     NZVAR =       0     COORD =UNIQUE  
 PP    =NONE         RELWFN=NONE         LOCAL =NONE         NUMGRD=       F
 ISPHER=      -1     NOSYM =       0     MAXIT =      30     UNITS =ANGS    
 PLTORB=       F     MOLPLT=       F     AIMPAC=       F     FRIEND=        
 NPRINT=       7     IREST =       0     GEOM  =INPUT   
 NORMF =       0     NORMP =       0     ITOL  =      20     ICUT  =       9
 INTTYP=BEST         GRDTYP=BEST         QMTTOL= 1.0E-06

     $SYSTEM OPTIONS
     ---------------
  REPLICATED MEMORY=     1000000 WORDS (ON EVERY NODE).
 DISTRIBUTED MEMDDI=           0 MILLION WORDS IN AGGREGATE,
 MEMDDI DISTRIBUTED OVER   1 PROCESSORS IS           0 WORDS/PROCESSOR.
 TOTAL MEMORY REQUESTED ON EACH PROCESSOR=     1000000 WORDS.
 TIMLIM=      525600.00 MINUTES, OR     365.0 DAYS.
 PARALL= F  BALTYP=  DLB     KDIAG=    0  COREFL= F
 MXSEQ2=     300 MXSEQ3=     150  mem10=         0

          ----------------
          PROPERTIES INPUT
          ----------------

     MOMENTS            FIELD           POTENTIAL          DENSITY
 IEMOM =       1   IEFLD =       0   IEPOT =       0   IEDEN =       0
 WHERE =COMASS     WHERE =NUCLEI     WHERE =NUCLEI     WHERE =NUCLEI  
 OUTPUT=BOTH       OUTPUT=BOTH       OUTPUT=BOTH       OUTPUT=BOTH    
 IEMINT=       0   IEFINT=       0                     IEDINT=       0
                                                       MORB  =       0
          EXTRAPOLATION IN EFFECT
          SOSCF IN EFFECT
 ORBITAL PRINTING OPTION: NPREO=     1    18     2     1

     -------------------------------
     INTEGRAL TRANSFORMATION OPTIONS
     -------------------------------
     NWORD  =            0
     CUTOFF = 1.0E-09     MPTRAN =       0
     DIRTRF =       F     AOINTS =DUP     

          ----------------------
          INTEGRAL INPUT OPTIONS
          ----------------------
 NOPK  =       1 NORDER=       0 SCHWRZ=       F

     ------------------------------------------
     THE POINT GROUP IS CNV, NAXIS= 2, ORDER= 4
     ------------------------------------------

     DIMENSIONS OF THE SYMMETRY SUBSPACES ARE
 A1  =   10     A2  =    0     B1  =    4     B2  =    4

 ..... DONE SETTING UP THE RUN .....
 STEP CPU TIME =     0.01 TOTAL CPU TIME =        0.0 (    0.0 MIN)
 TOTAL WALL CLOCK TIME=        0.0 SECONDS, CPU UTILIZATION IS  50.00%

          ********************
          1 ELECTRON INTEGRALS
          ********************
 ...... END OF ONE-ELECTRON INTEGRALS ......
 STEP CPU TIME =     0.00 TOTAL CPU TIME =        0.0 (    0.0 MIN)
 TOTAL WALL CLOCK TIME=        0.0 SECONDS, CPU UTILIZATION IS  20.00%

          -------------
          GUESS OPTIONS
          -------------
          GUESS =HUCKEL            NORB  =       0          NORDER=       0
          MIX   =       F          PRTMO =       F          PUNMO =       F
          TOLZ  = 1.0E-08          TOLE  = 1.0E-05
          SYMDEN=       F          PURIFY=       F

 INITIAL GUESS ORBITALS GENERATED BY HUCKEL   ROUTINE.
 HUCKEL GUESS REQUIRES      4352 WORDS.

 SYMMETRIES FOR INITIAL GUESS ORBITALS FOLLOW.   BOTH SET(S).
     7 ORBITALS ARE OCCUPIED (    2 CORE ORBITALS).
     3=A1       4=B2       5=B1       6=A1       7=A1       8=B1       9=B2  
    10=A1      11=A1      12=A1      13=A1      14=A1      15=B1      16=B1  
    17=B2  
 ...... END OF INITIAL ORBITAL SELECTION ......
 STEP CPU TIME =     0.00 TOTAL CPU TIME =        0.0 (    0.0 MIN)
 TOTAL WALL CLOCK TIME=        0.0 SECONDS, CPU UTILIZATION IS  20.00%

                    ----------------------
                    AO INTEGRAL TECHNOLOGY
                    ----------------------
     S,P,L SHELL ROTATED AXIS INTEGRALS, REPROGRAMMED BY
        KAZUYA ISHIMURA (IMS) AND JOSE SIERRA (SYNSTAR).
     S,P,D,L SHELL ROTATED AXIS INTEGRALS PROGRAMMED BY
        KAZUYA ISHIMURA (INSTITUTE FOR MOLECULAR SCIENCE).
     S,P,D,F,G SHELL TO TOTAL QUARTET ANGULAR MOMENTUM SUM 5,
        ERIC PROGRAM BY GRAHAM FLETCHER (ELORET AND NASA ADVANCED
        SUPERCOMPUTING DIVISION, AMES RESEARCH CENTER).
     S,P,D,F,G,L SHELL GENERAL RYS QUADRATURE PROGRAMMED BY
        MICHEL DUPUIS (PACIFIC NORTHWEST NATIONAL LABORATORY).

          --------------------
          2 ELECTRON INTEGRALS
          --------------------

 THE -PK- OPTION IS OFF, THE INTEGRALS ARE NOT IN SUPERMATRIX FORM.
 STORING   15000 INTEGRALS/RECORD ON DISK, USING 12 BYTES/INTEGRAL.
 TWO ELECTRON INTEGRAL EVALUATION REQUIRES   89411 WORDS OF MEMORY.
 II,JST,KST,LST =  1  1  1  1 NREC =         1 INTLOC =    1
 II,JST,KST,LST =  2  1  1  1 NREC =         1 INTLOC =    2
 II,JST,KST,LST =  3  1  1  1 NREC =         1 INTLOC =    7
 II,JST,KST,LST =  4  1  1  1 NREC =         1 INTLOC =   22
 II,JST,KST,LST =  5  1  1  1 NREC =         1 INTLOC =   67
 II,JST,KST,LST =  6  1  1  1 NREC =         1 INTLOC =  214
 II,JST,KST,LST =  7  1  1  1 NREC =         1 INTLOC =  407
 II,JST,KST,LST =  8  1  1  1 NREC =         1 INTLOC =  678
 II,JST,KST,LST =  9  1  1  1 NREC =         1 INTLOC = 1048
 II,JST,KST,LST = 10  1  1  1 NREC =         1 INTLOC = 2284
 TOTAL NUMBER OF NONZERO TWO-ELECTRON INTEGRALS =                4350
          1 INTEGRAL RECORDS WERE STORED ON DISK FILE  8.
  ...... END OF TWO-ELECTRON INTEGRALS .....
 STEP CPU TIME =     0.04 TOTAL CPU TIME =        0.0 (    0.0 MIN)
 TOTAL WALL CLOCK TIME=        0.1 SECONDS, CPU UTILIZATION IS  55.56%

          --------------------------
                 RHF SCF CALCULATION
          --------------------------

     NUCLEAR ENERGY =        23.5724411025
     MAXIT =   30     NPUNCH=    2
     EXTRAP=T  DAMP=F  SHIFT=F  RSTRCT=F  DIIS=F  DEM=F  SOSCF=T
     DENSITY MATRIX CONV=  1.00E-06
     SOSCF WILL OPTIMIZE      77 ORBITAL ROTATIONS, SOGTOL=   0.250
     MEMORY REQUIRED FOR RHF ITERS=     32828 WORDS.

 ITER EX DEM     TOTAL ENERGY        E CHANGE  DENSITY CHANGE     ORB. GRAD
   1  0  0     -108.6299643772  -108.6299643772   0.267325908   0.000000000
          ---------------START SECOND ORDER SCF---------------
   2  1  0     -108.8692052400    -0.2392408628   0.076221074   0.056785108
   3  2  0     -108.8777414117    -0.0085361718   0.024392110   0.011089319
   4  3  0     -108.8781553438    -0.0004139321   0.001120340   0.000294043
   5  4  0     -108.8781560378    -0.0000006940   0.000237973   0.000086992
   6  5  0     -108.8781560756    -0.0000000378   0.000009118   0.000012054
   7  6  0     -108.8781560761    -0.0000000005   0.000004132   0.000002483
   8  7  0     -108.8781560761    -0.0000000000   0.000000146   0.000000241
   9  8  0     -108.8781560761    -0.0000000000   0.000000049   0.000000021

 RHF HAS CONVERGED, NOW COMPUTING EXACT TOTAL FOCK MATRIX
 FOR USE DURING THE COUPLED CLUSTER CALCULATION THAT FOLLOWS.

          -----------------
          DENSITY CONVERGED
          -----------------
     TIME TO FORM FOCK OPERATORS=       0.0 SECONDS (       0.0 SEC/ITER)
     TIME TO SOLVE SCF EQUATIONS=       0.0 SECONDS (       0.0 SEC/ITER)

 FINAL RHF ENERGY IS     -108.8781560761 AFTER   9 ITERATIONS

 LZ VALUE ANALYSIS FOR THE MOS
 ----------------------------------------
 MO     1 (    1) HAS LZ(WEIGHT)= 0.00(100.0%) 
 MO     2 (    2) HAS LZ(WEIGHT)= 0.00(100.0%) 
 MO     3 (    3) HAS LZ(WEIGHT)= 0.00(100.0%) 
 MO     4 (    4) HAS LZ(WEIGHT)= 0.00(100.0%) 
 MO     5 (    5) HAS LZ(WEIGHT)= 0.00(100.0%) 
 MO     6 (    6) HAS LZ(WEIGHT)=-1.00( 50.0%)  1.00( 50.0%) 
 MO     7 (    6) HAS LZ(WEIGHT)=-1.00( 50.0%)  1.00( 50.0%) 
 MO     8 (    7) HAS LZ(WEIGHT)=-1.00( 50.0%)  1.00( 50.0%) 
 MO     9 (    7) HAS LZ(WEIGHT)=-1.00( 50.0%)  1.00( 50.0%) 
 MO    10 (    8) HAS LZ(WEIGHT)= 0.00(100.0%) 
 MO    11 (    9) HAS LZ(WEIGHT)= 0.00(100.0%) 
 MO    12 (   10) HAS LZ(WEIGHT)=-1.00( 50.0%)  1.00( 50.0%) 
 MO    13 (   10) HAS LZ(WEIGHT)=-1.00( 50.0%)  1.00( 50.0%) 
 MO    14 (   11) HAS LZ(WEIGHT)=-1.00( 50.0%)  1.00( 50.0%) 
 MO    15 (   11) HAS LZ(WEIGHT)=-1.00( 50.0%)  1.00( 50.0%) 
 MO    16 (   12) HAS LZ(WEIGHT)= 0.00(100.0%) 
 MO    17 (   13) HAS LZ(WEIGHT)= 0.00(100.0%) 
 MO    18 (   14) HAS LZ(WEIGHT)= 0.00(100.0%) 

          ------------
          EIGENVECTORS
          ------------

                      1          2          3          4          5
                  -15.7194   -15.7160    -1.5237    -0.7740    -0.6240
                     A1         A1         A1         A1         A1  
    1  N  1  S    0.706421   0.706837  -0.170341   0.157739   0.059352
    2  N  1  S    0.001483   0.000807   0.371113  -0.365392  -0.097475
    3  N  1  S    0.000724   0.002976   0.167827  -0.462536  -0.325090
    4  N  1  X    0.000000   0.000000   0.000000   0.000000   0.000000
    5  N  1  Y    0.000000   0.000000   0.000000   0.000000   0.000000
    6  N  1  Z    0.002124   0.001953   0.257633   0.227772   0.523201
    7  N  1  X    0.000000   0.000000   0.000000   0.000000   0.000000
    8  N  1  Y    0.000000   0.000000   0.000000   0.000000   0.000000
    9  N  1  Z   -0.001053   0.000477  -0.025186   0.040352   0.096150
   10  N  2  S    0.706421  -0.706837  -0.170341  -0.157739   0.059352
   11  N  2  S    0.001483  -0.000807   0.371113   0.365392  -0.097475
   12  N  2  S    0.000724  -0.002976   0.167827   0.462536  -0.325090
   13  N  2  X    0.000000   0.000000   0.000000   0.000000   0.000000
   14  N  2  Y    0.000000   0.000000   0.000000   0.000000   0.000000
   15  N  2  Z   -0.002124   0.001953  -0.257633   0.227772  -0.523201
   16  N  2  X    0.000000   0.000000   0.000000   0.000000   0.000000
   17  N  2  Y    0.000000   0.000000   0.000000   0.000000   0.000000
   18  N  2  Z    0.001053   0.000477   0.025186   0.040352  -0.096150

                      6          7          8          9         10
                   -0.6236    -0.6236     0.1426     0.1426     0.4129
                     B1         B2         B1         B2         A1  
    1  N  1  S    0.000000   0.000000   0.000000   0.000000   0.093458
    2  N  1  S    0.000000   0.000000   0.000000   0.000000  -0.072262
    3  N  1  S    0.000000   0.000000   0.000000   0.000000  -2.915689
    4  N  1  X    0.512144   0.000000   0.511084   0.000000   0.000000
    5  N  1  Y    0.000000   0.512144   0.000000   0.511084   0.000000
    6  N  1  Z    0.000000   0.000000   0.000000   0.000000  -0.000307
    7  N  1  X    0.165450   0.000000   0.668052   0.000000   0.000000
    8  N  1  Y    0.000000   0.165450   0.000000   0.668052   0.000000
    9  N  1  Z    0.000000   0.000000   0.000000   0.000000  -1.883233
   10  N  2  S    0.000000   0.000000   0.000000   0.000000  -0.093458
   11  N  2  S    0.000000   0.000000   0.000000   0.000000   0.072262
   12  N  2  S    0.000000   0.000000   0.000000   0.000000   2.915689
   13  N  2  X    0.512144   0.000000  -0.511084   0.000000   0.000000
   14  N  2  Y    0.000000   0.512144   0.000000  -0.511084   0.000000
   15  N  2  Z    0.000000   0.000000   0.000000   0.000000  -0.000307
   16  N  2  X    0.165450   0.000000  -0.668052   0.000000   0.000000
   17  N  2  Y    0.000000   0.165450   0.000000  -0.668052   0.000000
   18  N  2  Z    0.000000   0.000000   0.000000   0.000000  -1.883233

                     11         12         13         14         15
                    0.5819     0.6001     0.6001     0.7709     0.7709
                     A1         B1         B2         B1         B2  
    1  N  1  S   -0.010170   0.000000   0.000000   0.000000   0.000000
    2  N  1  S   -0.170075   0.000000   0.000000   0.000000   0.000000
    3  N  1  S   -0.186448   0.000000   0.000000   0.000000   0.000000
    4  N  1  X    0.000000  -0.607441   0.000000   0.727222   0.000000
    5  N  1  Y    0.000000   0.000000  -0.607441   0.000000   0.727222
    6  N  1  Z   -0.404059   0.000000   0.000000   0.000000   0.000000
    7  N  1  X    0.000000   0.645233   0.000000  -1.292909   0.000000
    8  N  1  Y    0.000000   0.000000   0.645233   0.000000  -1.292909
    9  N  1  Z    1.113778   0.000000   0.000000   0.000000   0.000000
   10  N  2  S   -0.010170   0.000000   0.000000   0.000000   0.000000
   11  N  2  S   -0.170075   0.000000   0.000000   0.000000   0.000000
   12  N  2  S   -0.186448   0.000000   0.000000   0.000000   0.000000
   13  N  2  X    0.000000  -0.607441   0.000000  -0.727222   0.000000
   14  N  2  Y    0.000000   0.000000  -0.607441   0.000000  -0.727222
   15  N  2  Z    0.404059   0.000000   0.000000   0.000000   0.000000
   16  N  2  X    0.000000   0.645233   0.000000   1.292909   0.000000
   17  N  2  Y    0.000000   0.000000   0.645233   0.000000   1.292909
   18  N  2  Z   -1.113778   0.000000   0.000000   0.000000   0.000000

                     16         17         18
                    0.9151     1.1296     1.6349
                     A1         A1         A1  
    1  N  1  S   -0.075857   0.068356  -0.059969
    2  N  1  S    1.130644  -0.180704   1.591359
    3  N  1  S   -0.964229  -1.155107  -5.062532
    4  N  1  X    0.000000   0.000000   0.000000
    5  N  1  Y    0.000000   0.000000   0.000000
    6  N  1  Z   -0.207132  -1.101047  -0.001317
    7  N  1  X    0.000000   0.000000   0.000000
    8  N  1  Y    0.000000   0.000000   0.000000
    9  N  1  Z    0.075322  -0.123593  -1.819817
   10  N  2  S   -0.075857  -0.068356   0.059969
   11  N  2  S    1.130644   0.180704  -1.591359
   12  N  2  S   -0.964229   1.155107   5.062532
   13  N  2  X    0.000000   0.000000   0.000000
   14  N  2  Y    0.000000   0.000000   0.000000
   15  N  2  Z    0.207132  -1.101047  -0.001317
   16  N  2  X    0.000000   0.000000   0.000000
   17  N  2  Y    0.000000   0.000000   0.000000
   18  N  2  Z   -0.075322  -0.123593  -1.819817
 ...... END OF RHF CALCULATION ......
 STEP CPU TIME =     0.00 TOTAL CPU TIME =        0.0 (    0.0 MIN)
 TOTAL WALL CLOCK TIME=        0.1 SECONDS, CPU UTILIZATION IS  55.56%

     ----------------------------------------------------------------
     PROPERTY VALUES FOR THE RHF   SELF-CONSISTENT FIELD WAVEFUNCTION
     ----------------------------------------------------------------

          ---------------------------------------
          MULLIKEN AND LOWDIN POPULATION ANALYSES
          ---------------------------------------

               ----- POPULATIONS IN EACH AO -----
                             MULLIKEN      LOWDIN
              1  N  1  S      1.99981     1.99528
              2  N  1  S      0.94932     0.84964
              3  N  1  S      0.87888     0.72173
              4  N  1  X      0.76679     0.69159
              5  N  1  Y      0.76679     0.69159
              6  N  1  Z      1.11855     1.08983
              7  N  1  X      0.23321     0.30841
              8  N  1  Y      0.23321     0.30841
              9  N  1  Z      0.05344     0.34351
             10  N  2  S      1.99981     1.99528
             11  N  2  S      0.94932     0.84964
             12  N  2  S      0.87888     0.72173
             13  N  2  X      0.76679     0.69159
             14  N  2  Y      0.76679     0.69159
             15  N  2  Z      1.11855     1.08983
             16  N  2  X      0.23321     0.30841
             17  N  2  Y      0.23321     0.30841
             18  N  2  Z      0.05344     0.34351

          ----- MULLIKEN ATOMIC OVERLAP POPULATIONS -----
          (OFF-DIAGONAL ELEMENTS NEED TO BE MULTIPLIED BY 2)

             1           2

    1    6.4210164
    2    0.5789836   6.4210164

          TOTAL MULLIKEN AND LOWDIN ATOMIC POPULATIONS
       ATOM         MULL.POP.    CHARGE          LOW.POP.     CHARGE
    1 N             7.000000    0.000000         7.000000   -0.000000
    2 N             7.000000   -0.000000         7.000000   -0.000000

          -------------------------------
          BOND ORDER AND VALENCE ANALYSIS     BOND ORDER THRESHOLD=0.050
          -------------------------------

                   BOND                       BOND                       BOND
  ATOM PAIR DIST  ORDER      ATOM PAIR DIST  ORDER      ATOM PAIR DIST  ORDER
    1   2  1.100  2.783

                       TOTAL       BONDED        FREE
      ATOM            VALENCE     VALENCE     VALENCE
    1 N                 2.783       2.783      -0.000
    2 N                 2.783       2.783      -0.000

          ---------------------
          ELECTROSTATIC MOMENTS
          ---------------------

 POINT   1           X           Y           Z (BOHR)    CHARGE
                 0.000000    0.000000    1.039349       -0.00 (A.U.)
         DX          DY          DZ         /D/  (DEBYE)
     0.000000    0.000000   -0.000000    0.000000
 ...... END OF PROPERTY EVALUATION ......
 STEP CPU TIME =     0.00 TOTAL CPU TIME =        0.0 (    0.0 MIN)
 TOTAL WALL CLOCK TIME=        0.1 SECONDS, CPU UTILIZATION IS  33.33%

     ---------------------------
     COUPLED CLUSTER CALCULATION
     ---------------------------
 CCTYP                        =CCSD(T) 
 TOTAL NUMBER OF MOS          =    18
 NUMBER OF OCCUPIED MOS       =     7
 NUMBER OF FROZEN CORE MOS    =     1
 NUMBER OF FROZEN VIRTUAL MOS =     0
 MAXIMUM CC ITERATIONS        =    30
 MAXIMUM DIIS ITERATIONS      =     5
 CONVERGENCE CRITERION FOR CC =     7
 AMPLITUDE ACCURACY THRESHOLD = 0.0E+00

     --------------------------------------------
     PARTIAL TWO ELECTRON INTEGRAL TRANSFORMATION
     --------------------------------------------

 NUMBER OF CORE MOLECULAR ORBITALS     =    1
 NUMBER OF OCCUPIED MOLECULAR ORBITALS =   18
 TOTAL NUMBER OF MOLECULAR ORBITALS    =   18
 TOTAL NUMBER OF ATOMIC ORBITALS       =   18
 THRESHOLD FOR KEEPING TRANSFORMED 2E- INTEGRALS = 1.000E-09
 AO INTEGRALS WILL BE READ IN FROM DISK...
 EVALUATING THE FROZEN CORE ENERGY...
 ----- FROZEN CORE ENERGY =       -53.2884679764

 PLAN A: REQUIREMENTS FOR FULLY IN-MEMORY TRANSFORMATION:
 # OF WORDS AVAILABLE =              1000000
 # OF WORDS NEEDED    =               113984

 CHOOSING IN MEMORY PARTIAL TRANSFORMATION...
 TOTAL NUMBER OF TRANSFORMED 2E- INTEGRALS KEPT =         1865
 ... END OF INTEGRAL TRANSFORMATION ...
 STEP CPU TIME =     0.01 TOTAL CPU TIME =        0.1 (    0.0 MIN)
 TOTAL WALL CLOCK TIME=        0.2 SECONDS, CPU UTILIZATION IS  31.58%

   -----------------------
   COUPLED-CLUSTER PROGRAM
   -----------------------

   -------------------------------------------------------
   P.PIECUCH, S.A.KUCHARSKI, M.WLOCH, K.KOWALSKI, M.MUSIAL
   -------------------------------------------------------

 *****************************************************************
 THE FOLLOWING PAPERS SHOULD BE CITED WHEN USING COUPLED-CLUSTER
 OPTIONS:

 CCTYP = LCCD, CCD, CCSD, CCSD(T)
 P. PIECUCH, S.A. KUCHARSKI, K. KOWALSKI, AND M. MUSIAL,
 COMP. PHYS. COMMUN. 149, 71-96 (2002).

 CCTYP = R-CC, CR-CC, CCSD(TQ), CR-CC(Q)
 P. PIECUCH, S.A. KUCHARSKI, K. KOWALSKI, AND M. MUSIAL,
 COMP. PHYS. COMMUN. 149, 71-96 (2002);
 K. KOWALSKI AND P. PIECUCH, J. CHEM. PHYS. 113, 18-35 (2000);
 K. KOWALSKI AND P. PIECUCH, J. CHEM. PHYS. 113, 5644-5652 (2000).

 CCTYP = EOM-CCSD, CR-EOM
 P. PIECUCH, S.A. KUCHARSKI, K. KOWALSKI, AND M. MUSIAL,
 COMP. PHYS. COMMUN. 149, 71-96 (2002);
 K. KOWALSKI AND P. PIECUCH, J. CHEM. PHYS. 120, 1715-1738 (2004);
 M. WLOCH, J.R. GOUR, K. KOWALSKI, AND P. PIECUCH,
 J. CHEM. PHYS. 122, 214107-1 - 214107-15 (2005).

 CCTYP = CR-CCL
 P. PIECUCH, S.A. KUCHARSKI, K. KOWALSKI, AND M. MUSIAL,
 COMP. PHYS. COMMUN. 149, 71-96 (2002);
 P. PIECUCH AND M. WLOCH, J. CHEM. PHYS. 123,
 224105-1 - 224105-10 (2005).

 CCTYP = CR-EOML
 P. PIECUCH, S.A. KUCHARSKI, K. KOWALSKI, AND M. MUSIAL,
 COMP. PHYS. COMMUN. 149, 71-96 (2002);
 P. PIECUCH, J. R. GOUR, AND M. WLOCH,
 INT. J. QUANTUM CHEM. 109, 3268-3304 (2009);
 K. KOWALSKI AND P. PIECUCH,
 J. CHEM. PHYS. 120, 1715-1738 (2004).

 IN ADDITION, THE USE OF CCPRP=.TRUE. IN $CCINP AND/OR THE USE
 OF CCPRPE=.TRUE. IN $EOMINP SHOULD REFERENCE

 M. WLOCH, J.R. GOUR, K. KOWALSKI, AND P. PIECUCH,
 J. CHEM. PHYS. 122, 214107-1 - 214107-15 (2005).
 *****************************************************************


 THE FOLLOWING CALCULATIONS WILL BE PERFORMED:
                                                     CCSD   
                                                     CCSD[T]
                                                     CCSD(T)

 THE FOLLOWING ENERGY WILL BE CONSIDERED THE HIGHEST LEVEL:    CCSD(T)
 THE AVAILABLE REPLICATED MEMORY IS     1000000 WORDS.
 CONVERGENCE THRESHOLD:   1.0E-07
 MAXIMUM NUMBER OF ITERATIONS:   30

 MEMORY TO BE USED IN CC INTEGRAL SORTING IS       45972 WORDS.
 THE MINIMUM MEMORY TO ACCOMPLISH SORTING IS       43326 WORDS.
         1865 NON-ZERO TRANSFORMED 2E- INTEGRALS WERE SORTED INTO FILE 72:
           59 [IJ|KL] TYPE,         222 [AJ|KL] TYPE,
          241 [AB|IJ] TYPE,         358 [IA|BJ] TYPE,
          624 [AB|CI] TYPE,         361 [AB|CD] TYPE.
 TRANSFORMED INTEGRAL FILE  9 WAS READ    3 TIMES.
 ....... DONE WITH CC INTEGRAL PREPARATION .......
 STEP CPU TIME =     0.01 TOTAL CPU TIME =        0.1 (    0.0 MIN)
 TOTAL WALL CLOCK TIME=        0.2 SECONDS, CPU UTILIZATION IS  36.84%

 MEMORY REQUIRED FOR THE CCSD ITERATIONS IS       30768 WORDS.
 ITER:  1   CCSD    CORR. ENERGY:  -0.2064671513   CONV.:  1.1088E-02
 ITER:  2   CCSD    CORR. ENERGY:  -0.2151284852   CONV.: -8.4081E-03
 ITER:  3   CCSD    CORR. ENERGY:  -0.2153759918   CONV.: -3.8490E-03
 ITER:  4   CCSD    CORR. ENERGY:  -0.2165547665   CONV.:  1.8708E-02
 ITER:  5   CCSD    CORR. ENERGY:  -0.2165783291   CONV.:  1.8512E-02
 ITER:  6   CCSD    CORR. ENERGY:  -0.2172597071   CONV.:  1.2622E-02
 ITER:  7   CCSD    CORR. ENERGY:  -0.2189418799   CONV.: -1.1123E-03
 ITER:  8   CCSD    CORR. ENERGY:  -0.2188554462   CONV.: -1.8067E-04
 ITER:  9   CCSD    CORR. ENERGY:  -0.2188359983   CONV.:  6.3248E-06
 ITER: 10   CCSD    CORR. ENERGY:  -0.2188359276   CONV.: -1.9927E-06
 ITER: 11   CCSD    CORR. ENERGY:  -0.2188357790   CONV.: -7.3646E-07
 ITER: 12   CCSD    CORR. ENERGY:  -0.2188357372   CONV.: -1.9183E-07
 ITER: 13   CCSD    CORR. ENERGY:  -0.2188357249   CONV.: -3.7152E-08
 ITER: 14   CCSD    CORR. ENERGY:  -0.2188357257   CONV.: -3.7152E-08

     THE    CCSD     ITERATIONS HAVE CONVERGED

    MBPT(2) CORRELATION ENERGY:  -0.2297772273
    CCSD    CORRELATION ENERGY:  -0.2188357257

 T1 DIAGNOSTIC        =     0.01064888
 NORM OF THE T1 VECTOR=     0.03688879
 NORM OF THE T2 VECTOR=     0.29156971

 THE FIVE LARGEST T1 AMPLITUDES ARE:
 T1 AMPLITUDE IS  0.023546 FOR I=   7 -> A=  13
 T1 AMPLITUDE IS  0.023546 FOR I=   6 -> A=  12
 T1 AMPLITUDE IS  0.009776 FOR I=   5 -> A=  16
 T1 AMPLITUDE IS  0.009130 FOR I=   4 -> A=  17
 T1 AMPLITUDE IS  0.006685 FOR I=   4 -> A=  10

 THE FIVE LARGEST SPIN-UNIQUE T2 AMPLITUDES ARE:
 T2 AMPLITUDE IS -0.109410 FOR I,J=   6   6 -> A,B=   8   8
 T2 AMPLITUDE IS -0.109410 FOR I,J=   7   7 -> A,B=   9   9
 T2 AMPLITUDE IS -0.068061 FOR I,J=   6   7 -> A,B=   8   9
 T2 AMPLITUDE IS -0.047477 FOR I,J=   4   4 -> A,B=   8   8
 T2 AMPLITUDE IS -0.047477 FOR I,J=   4   4 -> A,B=   9   9
 PRINTED T2(I-ALPHA,J-BETA -> A-ALPHA,B-BETA) VALUES
 EQUAL   T2(J-ALPHA,I-BETA -> B-ALPHA,A-BETA) AMPLITUDES.

 ....... DONE WITH CC AMPLITUDE ITERATIONS .......
 STEP CPU TIME =     0.05 TOTAL CPU TIME =        0.1 (    0.0 MIN)
 TOTAL WALL CLOCK TIME=        0.2 SECONDS, CPU UTILIZATION IS  48.00%

 MEMORY REQUIRED FOR NONITERATIVE TRIPLES (T3WT2  ) IS        21868 WORDS.

                      SUMMARY OF RESULTS

      REFERENCE ENERGY:     -108.8781560761
        MBPT(2) ENERGY:     -109.1079333035   CORR.E=  -0.2297772273
        CCSD    ENERGY:     -109.0969918019   CORR.E=  -0.2188357257
        CCSD[T] ENERGY:     -109.1037752328   CORR.E=  -0.2256191567
        CCSD(T) ENERGY:     -109.1031913294   CORR.E=  -0.2250352533

 THE FOLLOWING METHOD AND ENERGY WILL BE CONSIDERED THE HIGHEST LEVEL RESULT:
 COUPLED-CLUSTER ENERGY E(   CCSD(T)) =     -109.1031913294

 ..... DONE WITH CC NON-ITERATIVE TRIPLES CORRECTIONS .....
 STEP CPU TIME =     0.01 TOTAL CPU TIME =        0.1 (    0.0 MIN)
 TOTAL WALL CLOCK TIME=        0.2 SECONDS, CPU UTILIZATION IS  52.00%
                580000  WORDS OF DYNAMIC MEMORY USED
 EXECUTION OF GAMESS TERMINATED NORMALLY Thu Jan 17 17:41:54 2019
 DDI: 263640 bytes (0.3 MB / 0 MWords) used by master data server.

 ----------------------------------------
 CPU timing information for all processes
 ========================================
 0: 0.100 + 0.32 = 0.132
 ----------------------------------------
 ddikick.x: exited gracefully.
unset echo
----- accounting info -----
Files used on the master node localhost were:
-rw-rw-r-- 1 maho maho    7502 Jan 17 17:41 ./N2.SV/1.1/N2.SV.CCSDT.1.1.gamess.dat
-rw------- 1 maho maho    1755 Jan 17 17:41 ./N2.SV/1.1/N2.SV.CCSDT.1.1.gamess.F05
-rw-rw-r-- 1 maho maho  180016 Jan 17 17:41 ./N2.SV/1.1/N2.SV.CCSDT.1.1.gamess.F08
-rw-rw-r-- 1 maho maho  181248 Jan 17 17:41 ./N2.SV/1.1/N2.SV.CCSDT.1.1.gamess.F09
-rw-rw-r-- 1 maho maho 1603280 Jan 17 17:41 ./N2.SV/1.1/N2.SV.CCSDT.1.1.gamess.F10
-rw-rw-r-- 1 maho maho  388608 Jan 17 17:41 ./N2.SV/1.1/N2.SV.CCSDT.1.1.gamess.F70
-rw-rw-r-- 1 maho maho  353760 Jan 17 17:41 ./N2.SV/1.1/N2.SV.CCSDT.1.1.gamess.F71
-rw-rw-r-- 1 maho maho  585640 Jan 17 17:41 ./N2.SV/1.1/N2.SV.CCSDT.1.1.gamess.F72
-rw-rw-r-- 1 maho maho    2112 Jan 17 17:41 ./N2.SV/1.1/N2.SV.CCSDT.1.1.gamess.F73
-rw-rw-r-- 1 maho maho   69696 Jan 17 17:41 ./N2.SV/1.1/N2.SV.CCSDT.1.1.gamess.F74
-rw-rw-r-- 1 maho maho       0 Jan 17 17:41 ./N2.SV/1.1/N2.SV.CCSDT.1.1.gamess.F75
-rw-rw-r-- 1 maho maho       0 Jan 17 17:41 ./N2.SV/1.1/N2.SV.CCSDT.1.1.gamess.F76
-rw-rw-r-- 1 maho maho       0 Jan 17 17:41 ./N2.SV/1.1/N2.SV.CCSDT.1.1.gamess.F77
-rw------- 1 maho maho    1755 Jan 17 17:41 ./N2.SV/1.1/N2.SV.CCSDT.1.1.gamess.inp
-rw-rw-r-- 1 maho maho   37573 Jan 17 17:41 ./N2.SV/1.1/N2.SV.CCSDT.1.1.gamess.log
ls: No match.
ls: No match.
ls: No match.
Thu Jan 17 17:41:57 JST 2019
0.0u 0.0s 0:03.43 1.7% 0+0k 0+8io 0pf+0w
