----- GAMESS execution script 'rungms' -----
This job is running on host localhost
under operating system Linux at Thu Jan 17 17:41:57 JST 2019
Available scratch disk space (Kbyte units) at beginning of the job is
Filesystem     1K-blocks      Used Available Use% Mounted on
/dev/sda1      895286904 141741348 708044528  17% /
GAMESS temporary binary files will be written to .
GAMESS supplementary output files will be written to .
Copying input file N2.SV/1.1/N2.SV.fullCI.1.1.gamess.inp to your run's scratch directory...
cp N2.SV/1.1/N2.SV.fullCI.1.1.gamess.inp ./N2.SV/1.1/N2.SV.fullCI.1.1.gamess.F05
unset echo
/work/pubchem/pm6/pkg/gamess_intel/ddikick.x /work/pubchem/pm6/pkg/gamess_intel/gamess.00.x N2.SV/1.1/N2.SV.fullCI.1.1.gamess -ddi 12 12 localhost localhost localhost localhost localhost localhost localhost localhost localhost localhost localhost localhost -scr .

 Distributed Data Interface kickoff program.
 Initiating 12 compute processes on 12 nodes to run the following command:
 /work/pubchem/pm6/pkg/gamess_intel/gamess.00.x N2.SV/1.1/N2.SV.fullCI.1.1.gamess 

          ******************************************************
          *         GAMESS VERSION =  5 DEC 2014 (R1)          *
          *             FROM IOWA STATE UNIVERSITY             *
          * M.W.SCHMIDT, K.K.BALDRIDGE, J.A.BOATZ, S.T.ELBERT, *
          *   M.S.GORDON, J.H.JENSEN, S.KOSEKI, N.MATSUNAGA,   *
          *          K.A.NGUYEN, S.J.SU, T.L.WINDUS,           *
          *       TOGETHER WITH M.DUPUIS, J.A.MONTGOMERY       *
          *         J.COMPUT.CHEM.  14, 1347-1363(1993)        *
          **************** 64 BIT INTEL VERSION ****************

  SINCE 1993, STUDENTS AND POSTDOCS WORKING AT IOWA STATE UNIVERSITY
  AND ALSO IN THEIR VARIOUS JOBS AFTER LEAVING ISU HAVE MADE IMPORTANT
  CONTRIBUTIONS TO THE CODE:
     IVANA ADAMOVIC, CHRISTINE AIKENS, YURI ALEXEEV, POOJA ARORA,
     ANDREY ASADCHEV, ROB BELL, PRADIPTA BANDYOPADHYAY, JONATHAN BENTZ,
     BRETT BODE, KURT BRORSEN, CALEB CARLIN, GALINA CHABAN, WEI CHEN,
     CHEOL HO CHOI, PAUL DAY, ALBERT DEFUSCO, NUWAN DESILVA, TIM DUDLEY,
     DMITRI FEDOROV, GRAHAM FLETCHER, MARK FREITAG, KURT GLAESEMANN,
     DAN KEMP, GRANT MERRILL, NORIYUKI MINEZAWA, JONATHAN MULLIN,
     TAKESHI NAGATA, SEAN NEDD, HEATHER NETZLOFF, BOSILJKA NJEGIC, RYAN OLSON,
     MIKE PAK, SPENCER PRUITT, LUKE ROSKOP, JIM SHOEMAKER, LYUDMILA SLIPCHENKO,
     TONY SMITH, SAROM SOK, JIE SONG, TETSUYA TAKETSUGU, SIMON WEBB,
     PENG XU, SOOHAENG YOO, FEDERICO ZAHARIEV

  ADDITIONAL CODE HAS BEEN PROVIDED BY COLLABORATORS IN OTHER GROUPS:
     IOWA STATE UNIVERSITY:
          JOE IVANIC, AARON WEST, LAIMUTIS BYTAUTAS, KLAUS RUEDENBERG
     UNIVERSITY OF TOKYO: KIMIHIKO HIRAO, TAKAHITO NAKAJIMA,
          TAKAO TSUNEDA, MUNEAKI KAMIYA, SUSUMU YANAGISAWA,
          KIYOSHI YAGI, MAHITO CHIBA, SEIKEN TOKURA, NAOAKI KAWAKAMI
     UNIVERSITY OF AARHUS: FRANK JENSEN
     UNIVERSITY OF IOWA: VISVALDAS KAIRYS, HUI LI
     NATIONAL INST. OF STANDARDS AND TECHNOLOGY: WALT STEVENS, DAVID GARMER
     UNIVERSITY OF PISA: BENEDETTA MENNUCCI, JACOPO TOMASI
     UNIVERSITY OF MEMPHIS: HENRY KURTZ, PRAKASHAN KORAMBATH
     UNIVERSITY OF ALBERTA: TOBY ZENG, MARIUSZ KLOBUKOWSKI
     UNIVERSITY OF NEW ENGLAND: MARK SPACKMAN
     MIE UNIVERSITY: HIROAKI UMEDA
     NAT. INST. OF ADVANCED INDUSTRIAL SCIENCE AND TECHNOLOGY: KAZUO KITAURA
     MICHIGAN STATE UNIVERSITY:
          KAROL KOWALSKI, MARTA WLOCH, JEFFREY GOUR, JESSE LUTZ,
          WEI LI, PIOTR PIECUCH
     UNIVERSITY OF SILESIA: MONIKA MUSIAL, STANISLAW KUCHARSKI
     FACULTES UNIVERSITAIRES NOTRE-DAME DE LA PAIX:
          OLIVIER QUINET, BENOIT CHAMPAGNE
     UNIVERSITY OF CALIFORNIA - SANTA BARBARA: BERNARD KIRTMAN
     INSTITUTE FOR MOLECULAR SCIENCE:
          KAZUYA ISHIMURA, MICHIO KATOUDA, AND SHIGERU NAGASE
     UNIVERSITY OF NOTRE DAME: ANNA POMOGAEVA, DAN CHIPMAN
     KYUSHU UNIVERSITY:
          HARUYUKI NAKANO,
          FENG LONG GU, JACEK KORCHOWIEC, MARCIN MAKOWSKI, AND YURIKO AOKI,
          HIROTOSHI MORI AND EISAKU MIYOSHI
     PENNSYLVANIA STATE UNIVERSITY:
          TZVETELIN IORDANOV, CHET SWALINA, JONATHAN SKONE,
          SHARON HAMMES-SCHIFFER
     WASEDA UNIVERSITY:
          MASATO KOBAYASHI, TOMOKO AKAMA, TSUGUKI TOUMA,
          TAKESHI YOSHIKAWA, YASUHIRO IKABATA, HIROMI NAKAI
     NANJING UNIVERSITY: SHUHUA LI
     UNIVERSITY OF NEBRASKA:
          PEIFENG SU, DEJUN SI, NANDUN THELLAMUREGE, YALI WANG, HUI LI
     UNIVERSITY OF ZURICH: ROBERTO PEVERATI, KIM BALDRIDGE
     N. COPERNICUS UNIVERSITY AND JACKSON STATE UNIVERSITY:
          MARIA BARYSZ
     UNIVERSITY OF COPENHAGEN: CASPER STEINMANN
     TOKYO INSTITUTE OF TECHNOLOGY: HIROYA NAKATA
     NAGOYA UNIVERSITY: YOSHIO NISHIMOTO, STEPHAN IRLE


 PARALLEL VERSION RUNNING ON       12 PROCESSORS IN       12 NODES.

 EXECUTION OF GAMESS BEGUN Thu Jan 17 17:41:57 2019

            ECHO OF THE FIRST FEW INPUT CARDS -
 INPUT CARD> $CONTRL SCFTYP=RHF CITYP=ALDET $END                                            
 INPUT CARD> $GUESS GUESS=HUCKEL $END                                                       
 INPUT CARD> $SYSTEM MWORDS=300 $END                                                        
 INPUT CARD> $CIDET SZ=0 GROUP=C2V NCORE=2 NACT=16 NELS=10 NSTGSS=6 $END                    
 INPUT CARD> $DATA                                                                          
 INPUT CARD>N2...HF...Double-zeta basis                                                     
 INPUT CARD>Cnv   2                                                                         
 INPUT CARD>                                                                                
 INPUT CARD>N     7.0    0.0      0.0     0.0                                               
 INPUT CARD>S   7                                                                           
 INPUT CARD>  1   5909.0000000              0.0011900                                       
 INPUT CARD>  2    887.5000000              0.0090990                                       
 INPUT CARD>  3    204.7000000              0.0441450                                       
 INPUT CARD>  4     59.8400000              0.1504640                                       
 INPUT CARD>  5     20.0000000              0.3567410                                       
 INPUT CARD>  6      7.1930000              0.4465330                                       
 INPUT CARD>  7      2.6860000              0.1456030                                       
 INPUT CARD>S   2                                                                           
 INPUT CARD>  1      7.1930000             -0.1604050                                       
 INPUT CARD>  2      0.7000000              1.0582150                                       
 INPUT CARD>S   1                                                                           
 INPUT CARD>  1      0.2133000              1.0000000                                       
 INPUT CARD>P   4                                                                           
 INPUT CARD>  1     26.7900000              0.0182540                                       
 INPUT CARD>  2      5.9560000              0.1164610                                       
 INPUT CARD>  3      1.7070000              0.3901780                                       
 INPUT CARD>  4      0.5314000              0.6371020                                       
 INPUT CARD>P   1                                                                           
 INPUT CARD>  1      0.1654000              1.0000000                                       
 INPUT CARD>                                                                                
 INPUT CARD>N     7.0    0.0      0.0     1.1                                               
 INPUT CARD>S   7                                                                           
 INPUT CARD>  1   5909.0000000              0.0011900                                       
 INPUT CARD>  2    887.5000000              0.0090990                                       
 INPUT CARD>  3    204.7000000              0.0441450                                       
 INPUT CARD>  4     59.8400000              0.1504640                                       
 INPUT CARD>  5     20.0000000              0.3567410                                       
 INPUT CARD>  6      7.1930000              0.4465330                                       
 INPUT CARD>  7      2.6860000              0.1456030                                       
 INPUT CARD>S   2                                                                           
 INPUT CARD>  1      7.1930000             -0.1604050                                       
 INPUT CARD>  2      0.7000000              1.0582150                                       
 INPUT CARD>S   1                                                                           
 INPUT CARD>  1      0.2133000              1.0000000                                       
 INPUT CARD>P   4                                                                           
 INPUT CARD>  1     26.7900000              0.0182540                                       
 INPUT CARD>  2      5.9560000              0.1164610                                       
 INPUT CARD>  3      1.7070000              0.3901780                                       
 INPUT CARD>  4      0.5314000              0.6371020                                       
 INPUT CARD>P   1                                                                           
  300000000 WORDS OF MEMORY AVAILABLE


     RUN TITLE
     ---------
 N2...HF...Double-zeta basis                                                     

 THE POINT GROUP OF THE MOLECULE IS CNV     
 THE ORDER OF THE PRINCIPAL AXIS IS     2

 ATOM      ATOMIC                      COORDINATES (BOHR)
           CHARGE         X                   Y                   Z
 N           7.0     0.0000000000        0.0000000000        0.0000000000
 N           7.0     0.0000000000        0.0000000000        2.0786985865

          INTERNUCLEAR DISTANCES (ANGS.)
          ------------------------------

                1 N          2 N     

   1 N       0.0000000    1.1000000 *
   2 N       1.1000000 *  0.0000000  

  * ... LESS THAN  3.000


     ATOMIC BASIS SET
     ----------------
 THE CONTRACTED PRIMITIVE FUNCTIONS HAVE BEEN UNNORMALIZED
 THE CONTRACTED BASIS FUNCTIONS ARE NOW NORMALIZED TO UNITY

  SHELL TYPE  PRIMITIVE        EXPONENT          CONTRACTION COEFFICIENT(S)

 N         

      1   S       1          5909.0000000    0.001189999548
      1   S       2           887.5000000    0.009098996542
      1   S       3           204.7000000    0.044144983225
      1   S       4            59.8400000    0.150463942825
      1   S       5            20.0000000    0.356740864442
      1   S       6             7.1930000    0.446532830321
      1   S       7             2.6860000    0.145602944672

      2   S       8             7.1930000   -0.160405033446
      2   S       9             0.7000000    1.058215220651

      3   S      10             0.2133000    1.000000000000

      4   P      11            26.7900000    0.018253998243
      4   P      12             5.9560000    0.116460988791
      4   P      13             1.7070000    0.390177962446
      4   P      14             0.5314000    0.637101938680

      5   P      15             0.1654000    1.000000000000

 N         

      6   S      16          5909.0000000    0.001189999548
      6   S      17           887.5000000    0.009098996542
      6   S      18           204.7000000    0.044144983225
      6   S      19            59.8400000    0.150463942825
      6   S      20            20.0000000    0.356740864442
      6   S      21             7.1930000    0.446532830321
      6   S      22             2.6860000    0.145602944672

      7   S      23             7.1930000   -0.160405033446
      7   S      24             0.7000000    1.058215220651

      8   S      25             0.2133000    1.000000000000

      9   P      26            26.7900000    0.018253998243
      9   P      27             5.9560000    0.116460988791
      9   P      28             1.7070000    0.390177962446
      9   P      29             0.5314000    0.637101938680

     10   P      30             0.1654000    1.000000000000

 TOTAL NUMBER OF BASIS SET SHELLS             =   10
 NUMBER OF CARTESIAN GAUSSIAN BASIS FUNCTIONS =   18
 NUMBER OF ELECTRONS                          =   14
 CHARGE OF MOLECULE                           =    0
 SPIN MULTIPLICITY                            =    1
 NUMBER OF OCCUPIED ORBITALS (ALPHA)          =    7
 NUMBER OF OCCUPIED ORBITALS (BETA )          =    7
 TOTAL NUMBER OF ATOMS                        =    2
 THE NUCLEAR REPULSION ENERGY IS       23.5724411025

 THIS MOLECULE IS RECOGNIZED AS BEING LINEAR,
 ORBITAL LZ DEGENERACY TOLERANCE ETOLLZ= 1.00E-06

     $CONTRL OPTIONS
     ---------------
 SCFTYP=RHF          RUNTYP=ENERGY       EXETYP=RUN     
 MPLEVL=       0     CITYP =ALDET        CCTYP =NONE         VBTYP =NONE    
 DFTTYP=NONE         TDDFT =NONE    
 MULT  =       1     ICHARG=       0     NZVAR =       0     COORD =UNIQUE  
 PP    =NONE         RELWFN=NONE         LOCAL =NONE         NUMGRD=       F
 ISPHER=      -1     NOSYM =       0     MAXIT =      30     UNITS =ANGS    
 PLTORB=       F     MOLPLT=       F     AIMPAC=       F     FRIEND=        
 NPRINT=       7     IREST =       0     GEOM  =INPUT   
 NORMF =       0     NORMP =       0     ITOL  =      20     ICUT  =       9
 INTTYP=BEST         GRDTYP=BEST         QMTTOL= 1.0E-06

     $SYSTEM OPTIONS
     ---------------
  REPLICATED MEMORY=   300000000 WORDS (ON EVERY NODE).
 DISTRIBUTED MEMDDI=           0 MILLION WORDS IN AGGREGATE,
 MEMDDI DISTRIBUTED OVER  12 PROCESSORS IS           0 WORDS/PROCESSOR.
 TOTAL MEMORY REQUESTED ON EACH PROCESSOR=   300000000 WORDS.
 TIMLIM=      525600.00 MINUTES, OR     365.0 DAYS.
 PARALL= T  BALTYP=  DLB     KDIAG=    0  COREFL= F
 MXSEQ2=     300 MXSEQ3=     150  mem10=         0

          ----------------
          PROPERTIES INPUT
          ----------------

     MOMENTS            FIELD           POTENTIAL          DENSITY
 IEMOM =       1   IEFLD =       0   IEPOT =       0   IEDEN =       0
 WHERE =COMASS     WHERE =NUCLEI     WHERE =NUCLEI     WHERE =NUCLEI  
 OUTPUT=BOTH       OUTPUT=BOTH       OUTPUT=BOTH       OUTPUT=BOTH    
 IEMINT=       0   IEFINT=       0                     IEDINT=       0
                                                       MORB  =       0
          EXTRAPOLATION IN EFFECT
          SOSCF IN EFFECT
 ORBITAL PRINTING OPTION: NPREO=     1    18     2     1

     -------------------------------
     INTEGRAL TRANSFORMATION OPTIONS
     -------------------------------
     NWORD  =            0
     CUTOFF = 1.0E-09     MPTRAN =       0
     DIRTRF =       F     AOINTS =DUP     

          ----------------------
          INTEGRAL INPUT OPTIONS
          ----------------------
 NOPK  =       1 NORDER=       0 SCHWRZ=       F

     ------------------------------------------
     THE POINT GROUP IS CNV, NAXIS= 2, ORDER= 4
     ------------------------------------------

     DIMENSIONS OF THE SYMMETRY SUBSPACES ARE
 A1  =   10     A2  =    0     B1  =    4     B2  =    4

 ..... DONE SETTING UP THE RUN .....
 CPU     0: STEP CPU TIME=     0.02 TOTAL CPU TIME=        0.0 (    0.0 MIN)
 TOTAL WALL CLOCK TIME=        0.0 SECONDS, CPU UTILIZATION IS 100.00%

          ********************
          1 ELECTRON INTEGRALS
          ********************
 ...... END OF ONE-ELECTRON INTEGRALS ......
 CPU     0: STEP CPU TIME=     0.00 TOTAL CPU TIME=        0.0 (    0.0 MIN)
 TOTAL WALL CLOCK TIME=        0.1 SECONDS, CPU UTILIZATION IS  33.33%

          -------------
          GUESS OPTIONS
          -------------
          GUESS =HUCKEL            NORB  =       0          NORDER=       0
          MIX   =       F          PRTMO =       F          PUNMO =       F
          TOLZ  = 1.0E-08          TOLE  = 1.0E-05
          SYMDEN=       F          PURIFY=       F

 INITIAL GUESS ORBITALS GENERATED BY HUCKEL   ROUTINE.
 HUCKEL GUESS REQUIRES      4352 WORDS.

 SYMMETRIES FOR INITIAL GUESS ORBITALS FOLLOW.   BOTH SET(S).
     7 ORBITALS ARE OCCUPIED (    2 CORE ORBITALS).
     3=A1       4=B2       5=B1       6=A1       7=A1       8=B1       9=B2  
    10=A1      11=A1      12=A1      13=A1      14=A1      15=B1      16=B1  
    17=B2  
 ...... END OF INITIAL ORBITAL SELECTION ......
 CPU     0: STEP CPU TIME=     0.00 TOTAL CPU TIME=        0.0 (    0.0 MIN)
 TOTAL WALL CLOCK TIME=        0.1 SECONDS, CPU UTILIZATION IS  33.33%

                    ----------------------
                    AO INTEGRAL TECHNOLOGY
                    ----------------------
     S,P,L SHELL ROTATED AXIS INTEGRALS, REPROGRAMMED BY
        KAZUYA ISHIMURA (IMS) AND JOSE SIERRA (SYNSTAR).
     S,P,D,L SHELL ROTATED AXIS INTEGRALS PROGRAMMED BY
        KAZUYA ISHIMURA (INSTITUTE FOR MOLECULAR SCIENCE).
     S,P,D,F,G SHELL TO TOTAL QUARTET ANGULAR MOMENTUM SUM 5,
        ERIC PROGRAM BY GRAHAM FLETCHER (ELORET AND NASA ADVANCED
        SUPERCOMPUTING DIVISION, AMES RESEARCH CENTER).
     S,P,D,F,G,L SHELL GENERAL RYS QUADRATURE PROGRAMMED BY
        MICHEL DUPUIS (PACIFIC NORTHWEST NATIONAL LABORATORY).

          --------------------
          2 ELECTRON INTEGRALS
          --------------------

 THE -PK- OPTION IS OFF, THE INTEGRALS ARE NOT IN SUPERMATRIX FORM.
 STORING   15000 INTEGRALS/RECORD ON DISK, USING 12 BYTES/INTEGRAL.
 TWO ELECTRON INTEGRAL EVALUATION REQUIRES   89411 WORDS OF MEMORY.
 II,JST,KST,LST =  1  1  1  1 NREC =         1 INTLOC =    1
 II,JST,KST,LST =  2  1  1  1 NREC =         1 INTLOC =    2
 II,JST,KST,LST =  3  1  1  1 NREC =         1 INTLOC =    7
 II,JST,KST,LST =  4  1  1  1 NREC =         1 INTLOC =   22
 II,JST,KST,LST =  5  1  1  1 NREC =         1 INTLOC =   67
 II,JST,KST,LST =  6  1  1  1 NREC =         1 INTLOC =   67
 II,JST,KST,LST =  7  1  1  1 NREC =         1 INTLOC =  115
 II,JST,KST,LST =  8  1  1  1 NREC =         1 INTLOC =  115
 II,JST,KST,LST =  9  1  1  1 NREC =         1 INTLOC =  115
 II,JST,KST,LST = 10  1  1  1 NREC =         1 INTLOC =  301
 TOTAL NUMBER OF NONZERO TWO-ELECTRON INTEGRALS =                4350
         12 INTEGRAL RECORDS WERE STORED ON DISK FILE  8.
  ...... END OF TWO-ELECTRON INTEGRALS .....
 CPU     0: STEP CPU TIME=     0.01 TOTAL CPU TIME=        0.0 (    0.0 MIN)
 TOTAL WALL CLOCK TIME=        0.1 SECONDS, CPU UTILIZATION IS  37.50%

          --------------------------
                 RHF SCF CALCULATION
          --------------------------

     NUCLEAR ENERGY =        23.5724411025
     MAXIT =   30     NPUNCH=    2
     EXTRAP=T  DAMP=F  SHIFT=F  RSTRCT=F  DIIS=F  DEM=F  SOSCF=T
     DENSITY MATRIX CONV=  1.00E-06
     SOSCF WILL OPTIMIZE      77 ORBITAL ROTATIONS, SOGTOL=   0.250
     MEMORY REQUIRED FOR RHF ITERS=     32828 WORDS.

 ITER EX DEM     TOTAL ENERGY        E CHANGE  DENSITY CHANGE     ORB. GRAD
   1  0  0     -108.6299643772  -108.6299643772   0.267325908   0.000000000
          ---------------START SECOND ORDER SCF---------------
   2  1  0     -108.8692052400    -0.2392408628   0.076221074   0.056785108
   3  2  0     -108.8777414117    -0.0085361718   0.024392110   0.011089319
   4  3  0     -108.8781553438    -0.0004139321   0.001120340   0.000294043
   5  4  0     -108.8781560378    -0.0000006940   0.000237973   0.000086992
   6  5  0     -108.8781560756    -0.0000000378   0.000009118   0.000012054
   7  6  0     -108.8781560761    -0.0000000005   0.000004132   0.000002483
   8  7  0     -108.8781560761    -0.0000000000   0.000000146   0.000000241
   9  8  0     -108.8781560761    -0.0000000000   0.000000049   0.000000021

          -----------------
          DENSITY CONVERGED
          -----------------
     TIME TO FORM FOCK OPERATORS=       0.0 SECONDS (       0.0 SEC/ITER)
     TIME TO SOLVE SCF EQUATIONS=       0.0 SECONDS (       0.0 SEC/ITER)

 FINAL RHF ENERGY IS     -108.8781560761 AFTER   9 ITERATIONS

 LZ VALUE ANALYSIS FOR THE MOS
 ----------------------------------------
 MO     1 (    1) HAS LZ(WEIGHT)= 0.00(100.0%) 
 MO     2 (    2) HAS LZ(WEIGHT)= 0.00(100.0%) 
 MO     3 (    3) HAS LZ(WEIGHT)= 0.00(100.0%) 
 MO     4 (    4) HAS LZ(WEIGHT)= 0.00(100.0%) 
 MO     5 (    5) HAS LZ(WEIGHT)= 0.00(100.0%) 
 MO     6 (    6) HAS LZ(WEIGHT)=-1.00( 50.0%)  1.00( 50.0%) 
 MO     7 (    6) HAS LZ(WEIGHT)=-1.00( 50.0%)  1.00( 50.0%) 
 MO     8 (    7) HAS LZ(WEIGHT)=-1.00( 50.0%)  1.00( 50.0%) 
 MO     9 (    7) HAS LZ(WEIGHT)=-1.00( 50.0%)  1.00( 50.0%) 
 MO    10 (    8) HAS LZ(WEIGHT)= 0.00(100.0%) 
 MO    11 (    9) HAS LZ(WEIGHT)= 0.00(100.0%) 
 MO    12 (   10) HAS LZ(WEIGHT)=-1.00( 50.0%)  1.00( 50.0%) 
 MO    13 (   10) HAS LZ(WEIGHT)=-1.00( 50.0%)  1.00( 50.0%) 
 MO    14 (   11) HAS LZ(WEIGHT)=-1.00( 50.0%)  1.00( 50.0%) 
 MO    15 (   11) HAS LZ(WEIGHT)=-1.00( 50.0%)  1.00( 50.0%) 
 MO    16 (   12) HAS LZ(WEIGHT)= 0.00(100.0%) 
 MO    17 (   13) HAS LZ(WEIGHT)= 0.00(100.0%) 
 MO    18 (   14) HAS LZ(WEIGHT)= 0.00(100.0%) 

          ------------
          EIGENVECTORS
          ------------

                      1          2          3          4          5
                  -15.7194   -15.7160    -1.5237    -0.7740    -0.6240
                     A1         A1         A1         A1         A1  
    1  N  1  S    0.706421   0.706837  -0.170341   0.157739   0.059352
    2  N  1  S    0.001483   0.000807   0.371113  -0.365392  -0.097475
    3  N  1  S    0.000724   0.002976   0.167827  -0.462536  -0.325090
    4  N  1  X    0.000000   0.000000   0.000000   0.000000   0.000000
    5  N  1  Y    0.000000   0.000000   0.000000   0.000000   0.000000
    6  N  1  Z    0.002124   0.001953   0.257633   0.227772   0.523201
    7  N  1  X    0.000000   0.000000   0.000000   0.000000   0.000000
    8  N  1  Y    0.000000   0.000000   0.000000   0.000000   0.000000
    9  N  1  Z   -0.001053   0.000477  -0.025186   0.040352   0.096150
   10  N  2  S    0.706421  -0.706837  -0.170341  -0.157739   0.059352
   11  N  2  S    0.001483  -0.000807   0.371113   0.365392  -0.097475
   12  N  2  S    0.000724  -0.002976   0.167827   0.462536  -0.325090
   13  N  2  X    0.000000   0.000000   0.000000   0.000000   0.000000
   14  N  2  Y    0.000000   0.000000   0.000000   0.000000   0.000000
   15  N  2  Z   -0.002124   0.001953  -0.257633   0.227772  -0.523201
   16  N  2  X    0.000000   0.000000   0.000000   0.000000   0.000000
   17  N  2  Y    0.000000   0.000000   0.000000   0.000000   0.000000
   18  N  2  Z    0.001053   0.000477   0.025186   0.040352  -0.096150

                      6          7          8          9         10
                   -0.6236    -0.6236     0.1426     0.1426     0.4129
                     B1         B2         B1         B2         A1  
    1  N  1  S    0.000000   0.000000   0.000000   0.000000   0.093458
    2  N  1  S    0.000000   0.000000   0.000000   0.000000  -0.072262
    3  N  1  S    0.000000   0.000000   0.000000   0.000000  -2.915689
    4  N  1  X    0.512144   0.000000   0.511084   0.000000   0.000000
    5  N  1  Y    0.000000   0.512144   0.000000   0.511084   0.000000
    6  N  1  Z    0.000000   0.000000   0.000000   0.000000  -0.000307
    7  N  1  X    0.165450   0.000000   0.668052   0.000000   0.000000
    8  N  1  Y    0.000000   0.165450   0.000000   0.668052   0.000000
    9  N  1  Z    0.000000   0.000000   0.000000   0.000000  -1.883233
   10  N  2  S    0.000000   0.000000   0.000000   0.000000  -0.093458
   11  N  2  S    0.000000   0.000000   0.000000   0.000000   0.072262
   12  N  2  S    0.000000   0.000000   0.000000   0.000000   2.915689
   13  N  2  X    0.512144   0.000000  -0.511084   0.000000   0.000000
   14  N  2  Y    0.000000   0.512144   0.000000  -0.511084   0.000000
   15  N  2  Z    0.000000   0.000000   0.000000   0.000000  -0.000307
   16  N  2  X    0.165450   0.000000  -0.668052   0.000000   0.000000
   17  N  2  Y    0.000000   0.165450   0.000000  -0.668052   0.000000
   18  N  2  Z    0.000000   0.000000   0.000000   0.000000  -1.883233

                     11         12         13         14         15
                    0.5819     0.6001     0.6001     0.7709     0.7709
                     A1         B1         B2         B2         B1  
    1  N  1  S   -0.010170   0.000000   0.000000   0.000000   0.000000
    2  N  1  S   -0.170075   0.000000   0.000000   0.000000   0.000000
    3  N  1  S   -0.186448   0.000000   0.000000   0.000000   0.000000
    4  N  1  X    0.000000  -0.607441   0.000000   0.000000   0.727222
    5  N  1  Y    0.000000   0.000000  -0.607441   0.727222   0.000000
    6  N  1  Z   -0.404059   0.000000   0.000000   0.000000   0.000000
    7  N  1  X    0.000000   0.645233   0.000000   0.000000  -1.292909
    8  N  1  Y    0.000000   0.000000   0.645233  -1.292909   0.000000
    9  N  1  Z    1.113778   0.000000   0.000000   0.000000   0.000000
   10  N  2  S   -0.010170   0.000000   0.000000   0.000000   0.000000
   11  N  2  S   -0.170075   0.000000   0.000000   0.000000   0.000000
   12  N  2  S   -0.186448   0.000000   0.000000   0.000000   0.000000
   13  N  2  X    0.000000  -0.607441   0.000000   0.000000  -0.727222
   14  N  2  Y    0.000000   0.000000  -0.607441  -0.727222   0.000000
   15  N  2  Z    0.404059   0.000000   0.000000   0.000000   0.000000
   16  N  2  X    0.000000   0.645233   0.000000   0.000000   1.292909
   17  N  2  Y    0.000000   0.000000   0.645233   1.292909   0.000000
   18  N  2  Z   -1.113778   0.000000   0.000000   0.000000   0.000000

                     16         17         18
                    0.9151     1.1296     1.6349
                     A1         A1         A1  
    1  N  1  S   -0.075857   0.068356  -0.059969
    2  N  1  S    1.130644  -0.180704   1.591359
    3  N  1  S   -0.964229  -1.155107  -5.062532
    4  N  1  X    0.000000   0.000000   0.000000
    5  N  1  Y    0.000000   0.000000   0.000000
    6  N  1  Z   -0.207132  -1.101047  -0.001317
    7  N  1  X    0.000000   0.000000   0.000000
    8  N  1  Y    0.000000   0.000000   0.000000
    9  N  1  Z    0.075322  -0.123593  -1.819817
   10  N  2  S   -0.075857  -0.068356   0.059969
   11  N  2  S    1.130644   0.180704  -1.591359
   12  N  2  S   -0.964229   1.155107   5.062532
   13  N  2  X    0.000000   0.000000   0.000000
   14  N  2  Y    0.000000   0.000000   0.000000
   15  N  2  Z    0.207132  -1.101047  -0.001317
   16  N  2  X    0.000000   0.000000   0.000000
   17  N  2  Y    0.000000   0.000000   0.000000
   18  N  2  Z   -0.075322  -0.123593  -1.819817
 ...... END OF RHF CALCULATION ......
 CPU     0: STEP CPU TIME=     0.01 TOTAL CPU TIME=        0.0 (    0.0 MIN)
 TOTAL WALL CLOCK TIME=        0.1 SECONDS, CPU UTILIZATION IS  44.44%

     ----------------------------------------------------------------
     PROPERTY VALUES FOR THE RHF   SELF-CONSISTENT FIELD WAVEFUNCTION
     ----------------------------------------------------------------

          -----------------
          ENERGY COMPONENTS
          -----------------

         WAVEFUNCTION NORMALIZATION =       1.0000000000

                ONE ELECTRON ENERGY =    -193.6923424900
                TWO ELECTRON ENERGY =      61.2417453114
           NUCLEAR REPULSION ENERGY =      23.5724411025
                                      ------------------
                       TOTAL ENERGY =    -108.8781560761

 ELECTRON-ELECTRON POTENTIAL ENERGY =      61.2417453114
  NUCLEUS-ELECTRON POTENTIAL ENERGY =    -302.4869315207
   NUCLEUS-NUCLEUS POTENTIAL ENERGY =      23.5724411025
                                      ------------------
             TOTAL POTENTIAL ENERGY =    -217.6727451068
               TOTAL KINETIC ENERGY =     108.7945890307
                 VIRIAL RATIO (V/T) =       2.0007681177

  ...... PI ENERGY ANALYSIS ......

 ENERGY ANALYSIS:
            FOCK ENERGY=    -71.2088518694
          BARE H ENERGY=   -193.6923424900
     ELECTRONIC ENERGY =   -132.4505971797
         KINETIC ENERGY=    108.7945890307
          N-N REPULSION=     23.5724411025
           TOTAL ENERGY=   -108.8781560772
        SIGMA PART(1+2)=   -115.3063898743
               (K,V1,2)=    102.2231680279   -264.1216377689     46.5920798666
           PI PART(1+2)=    -17.1442073054
               (K,V1,2)=      6.5714210027    -38.3652937518     14.6496654437
  SIGMA SKELETON, ERROR=    -91.7339487718      0.0000000000
             MIXED PART= 0.00000E+00 0.00000E+00 0.00000E+00 0.00000E+00
 ...... END OF PI ENERGY ANALYSIS ......

          ---------------------------------------
          MULLIKEN AND LOWDIN POPULATION ANALYSES
          ---------------------------------------

               ----- POPULATIONS IN EACH AO -----
                             MULLIKEN      LOWDIN
              1  N  1  S      1.99981     1.99528
              2  N  1  S      0.94932     0.84964
              3  N  1  S      0.87888     0.72173
              4  N  1  X      0.76679     0.69159
              5  N  1  Y      0.76679     0.69159
              6  N  1  Z      1.11855     1.08983
              7  N  1  X      0.23321     0.30841
              8  N  1  Y      0.23321     0.30841
              9  N  1  Z      0.05344     0.34351
             10  N  2  S      1.99981     1.99528
             11  N  2  S      0.94932     0.84964
             12  N  2  S      0.87888     0.72173
             13  N  2  X      0.76679     0.69159
             14  N  2  Y      0.76679     0.69159
             15  N  2  Z      1.11855     1.08983
             16  N  2  X      0.23321     0.30841
             17  N  2  Y      0.23321     0.30841
             18  N  2  Z      0.05344     0.34351

          ----- MULLIKEN ATOMIC OVERLAP POPULATIONS -----
          (OFF-DIAGONAL ELEMENTS NEED TO BE MULTIPLIED BY 2)

             1           2

    1    6.4210164
    2    0.5789836   6.4210164

          TOTAL MULLIKEN AND LOWDIN ATOMIC POPULATIONS
       ATOM         MULL.POP.    CHARGE          LOW.POP.     CHARGE
    1 N             7.000000   -0.000000         7.000000   -0.000000
    2 N             7.000000   -0.000000         7.000000   -0.000000

          ---------------------
          ELECTROSTATIC MOMENTS
          ---------------------

 POINT   1           X           Y           Z (BOHR)    CHARGE
                 0.000000    0.000000    1.039349       -0.00 (A.U.)
         DX          DY          DZ         /D/  (DEBYE)
     0.000000    0.000000   -0.000000    0.000000
 ...... END OF PROPERTY EVALUATION ......
 CPU     0: STEP CPU TIME=     0.00 TOTAL CPU TIME=        0.0 (    0.0 MIN)
 TOTAL WALL CLOCK TIME=        0.1 SECONDS, CPU UTILIZATION IS  28.57%

 DETERMINANT CI OPTIONS   NRNFG   NPFLG
 INTEGRAL TRANSFORMATION    1       0
 DIAGONALIZE HAMILTONIAN    1       0
 FORM 1E- DENSITY MATRIX    1       0
 FORM 2E- DENSITY MATRIX    0       0

     --------------------------------------------------
          AMES LABORATORY DETERMINANTAL FULL CI
     PROGRAM WRITTEN BY JOE IVANIC AND KLAUS RUEDENBERG
     --------------------------------------------------

 THE POINT GROUP                  =   C2V     
 THE STATE SYMMETRY               =   A1      
 NUMBER OF CORE ORBITALS          =    2
 NUMBER OF ACTIVE ORBITALS        =   16
 NUMBER OF ALPHA ELECTRONS        =    7 (   5 ACTIVE)
 NUMBER OF BETA ELECTRONS         =    7 (   5 ACTIVE)
 NUMBER OF OCCUPIED ORBITALS      =   18
 NUMBER OF CI STATES REQUESTED    =    1
 NUMBER OF CI STARTING VECTORS    =    6
 MAX. NO. OF CI EXPANSION VECTORS =   12
 SIZE OF INITIAL CI GUESS MATRIX  =  300
 MAX. NO. OF CI ITERS/STATE       =  100
 CI DIAGONALIZATION CRITERION     = 1.00E-06
 CI PROPERTIES WILL BE FOUND FOR ROOT NUMBER   1
 1E- DENSITY MATRIX OPTIONS ARE 1

 CORRELATION ENERGY ANALYSIS      =    F

 SYMMETRIES FOR THE   2 CORE,  16 ACTIVE ARE

     CORE= A1    A1  

   ACTIVE= A1    A1    A1    B1    B2    B1    B2    A1    A1    B1  
           B2    B2    B1    A1    A1    A1  

     --------------------------------------------
     PARTIAL TWO ELECTRON INTEGRAL TRANSFORMATION
     --------------------------------------------

 NUMBER OF CORE MOLECULAR ORBITALS     =    2
 NUMBER OF OCCUPIED MOLECULAR ORBITALS =   18
 TOTAL NUMBER OF MOLECULAR ORBITALS    =   18
 TOTAL NUMBER OF ATOMIC ORBITALS       =   18
 THRESHOLD FOR KEEPING TRANSFORMED 2E- INTEGRALS = 1.000E-09

 -------------------------------     ------------------------------
 DISTRIBUTED DATA TRANSFORMATION     PROGRAM WRITTEN BY G. FLETCHER
 -------------------------------     ------------------------------

 THE DISTRIBUTED MEMORY REQUIRED FOR THIS STEP IS MEMDDI=         1 MWORDS
 CREATING DISTRIBUTED STORAGE FOR [OCC OCC|OCC OCC] INTEGRALS
 DDI: Creating Array [0] - 171 x 171 = 29241 words.
 CREATING WORKSPACE OF SIZE VVOO
 DDI: Creating Array [1] - 171 x 171 = 29241 words.
 FOR   12 PROCESSORS, THE REPLICATED MEMORY NEEDED IS       58507 WORDS.

      DIRECT 4-INDEX TRANSFORMATION 
      SCHWARZ INEQUALITY TEST SKIPPED          0 INTEGRAL BLOCKS
 ----- FROZEN CORE ENERGY =      -101.0100017861
 ... END OF INTEGRAL TRANSFORMATION ...
 CPU     0: STEP CPU TIME=     0.01 TOTAL CPU TIME=        0.0 (    0.0 MIN)
 TOTAL WALL CLOCK TIME=        0.2 SECONDS, CPU UTILIZATION IS  27.78%

     --------------------------------------------------
          AMES LABORATORY DETERMINANTAL FULL CI
     PROGRAM WRITTEN BY JOE IVANIC AND KLAUS RUEDENBERG
     --------------------------------------------------

 THE NUMBER OF DETERMINANTS HAVING SPACE SYMMETRY A1 
 IN POINT GROUP C2V  WITH SZ=  0.0 IS        4777056
 THE DETERMINANT FULL CI REQUIRES       119865995 WORDS
 INITIAL CI VECTOR GUESS TIME  :          1.7
 INITIAL FULL CI ITERATION TIME:          5.5

 ITERATION      ENERGY           GRADIENT
     0     -108.9953659284     0.56878203
     1     -109.0954119675     0.19566129
     2     -109.1035050506     0.07200132
     3     -109.1045002089     0.02864122
     4     -109.1046781608     0.01171332
     5     -109.1047078449     0.00552377
     6     -109.1047142109     0.00237083
     7     -109.1047151475     0.00105252
     8     -109.1047154388     0.00054624
     9     -109.1047155035     0.00025169
    10     -109.1047155148     0.00010782
    11     -109.1047155171     0.00003878
    12     -109.1047155173     0.00001215
    13     -109.1047155174     0.00000468
    14     -109.1047155174     0.00000186
    15     -109.1047155174     0.00000083

 CONVERGED STATE    1 ENERGY=     -109.1047155174 IN   15 ITERS

 ALL STATES CONVERGED.

 CI EIGENVECTORS WILL BE LABELED IN GROUP=C2V     
 PRINTING CI COEFFICIENTS LARGER THAN  0.050000

 STATE   1  ENERGY=      -109.1047155174  S=  0.00  SZ=  0.00  SPACE SYM=A1  

      ALPHA       |      BETA        | COEFFICIENT
------------------|------------------|------------
 1111100000000000 | 1111100000000000 |   0.9464696
 1111001000000000 | 1111001000000000 |  -0.1071487
 1110110000000000 | 1110110000000000 |  -0.1071487
 1110110000000000 | 1111001000000000 |  -0.0689266
 1111001000000000 | 1110110000000000 |  -0.0689266
 1011110000000000 | 1011110000000000 |  -0.0501844
 1011101000000000 | 1011101000000000 |  -0.0501844
 ..... DONE WITH DETERMINANT CI COMPUTATION .....
 CPU     0: STEP CPU TIME=    47.71 TOTAL CPU TIME=       47.8 (    0.8 MIN)
 TOTAL WALL CLOCK TIME=       61.0 SECONDS, CPU UTILIZATION IS  78.31%

     ---------------------------
     ONE PARTICLE DENSITY MATRIX
     ---------------------------

 DENSITY MATRIX WILL BE SAVED FOR   1-TH STATE WITH S= 0.00

 CI EIGENSTATE   1 TOTAL ENERGY =     -109.1047155174

          NATURAL ORBITALS IN ATOMIC ORBITAL BASIS
          ----------------------------------------

                      1          2          3          4          5
                    2.0000     2.0000     1.9869     1.9740     1.9716
                     A1         A1         A1         A1         A1  
    1  N  1  S    0.706421  -0.706837  -0.179868  -0.003721   0.157661
    2  N  1  S    0.001483  -0.000807   0.377111  -0.029545  -0.367929
    3  N  1  S    0.000724  -0.002976   0.265071   0.268016  -0.444883
    4  N  1  X    0.000000   0.000000   0.000000   0.000000   0.000000
    5  N  1  Y    0.000000   0.000000   0.000000   0.000000   0.000000
    6  N  1  Z    0.002124  -0.001953   0.087638  -0.572419   0.217371
    7  N  1  X    0.000000   0.000000   0.000000   0.000000   0.000000
    8  N  1  Y    0.000000   0.000000   0.000000   0.000000   0.000000
    9  N  1  Z   -0.001053  -0.000477  -0.056510  -0.091702   0.056276
   10  N  2  S    0.706421   0.706837  -0.179868  -0.003721  -0.157661
   11  N  2  S    0.001483   0.000807   0.377111  -0.029545   0.367929
   12  N  2  S    0.000724   0.002976   0.265071   0.268016   0.444883
   13  N  2  X    0.000000   0.000000   0.000000   0.000000   0.000000
   14  N  2  Y    0.000000   0.000000   0.000000   0.000000   0.000000
   15  N  2  Z   -0.002124  -0.001953  -0.087638   0.572419   0.217371
   16  N  2  X    0.000000   0.000000   0.000000   0.000000   0.000000
   17  N  2  Y    0.000000   0.000000   0.000000   0.000000   0.000000
   18  N  2  Z    0.001053  -0.000477   0.056510   0.091702   0.056276

                      6          7          8          9         10
                    1.9253     1.9253     0.0768     0.0768     0.0217
                     B2         B1         B2         B1         A1  
    1  N  1  S    0.000000   0.000000   0.000000   0.000000  -0.093215
    2  N  1  S    0.000000   0.000000   0.000000   0.000000   0.506310
    3  N  1  S    0.000000   0.000000   0.000000   0.000000   0.596862
    4  N  1  X    0.000000   0.522336   0.000000  -0.760552   0.000000
    5  N  1  Y    0.522336   0.000000  -0.760552   0.000000   0.000000
    6  N  1  Z    0.000000   0.000000   0.000000   0.000000   1.062181
    7  N  1  X    0.000000   0.154523   0.000000  -0.091188   0.000000
    8  N  1  Y    0.154523   0.000000  -0.091188   0.000000   0.000000
    9  N  1  Z    0.000000   0.000000   0.000000   0.000000   0.082295
   10  N  2  S    0.000000   0.000000   0.000000   0.000000   0.093215
   11  N  2  S    0.000000   0.000000   0.000000   0.000000  -0.506310
   12  N  2  S    0.000000   0.000000   0.000000   0.000000  -0.596862
   13  N  2  X    0.000000   0.522336   0.000000   0.760552   0.000000
   14  N  2  Y    0.522336   0.000000   0.760552   0.000000   0.000000
   15  N  2  Z    0.000000   0.000000   0.000000   0.000000   1.062181
   16  N  2  X    0.000000   0.154523   0.000000   0.091188   0.000000
   17  N  2  Y    0.154523   0.000000   0.091188   0.000000   0.000000
   18  N  2  Z    0.000000   0.000000   0.000000   0.000000   0.082295

                     11         12         13         14         15
                    0.0128     0.0098     0.0065     0.0065     0.0034
                     A1         A1         B1         B2         A1  
    1  N  1  S   -0.075873  -0.090104   0.000000   0.000000   0.016531
    2  N  1  S    1.004803   0.940167   0.000000   0.000000  -0.549357
    3  N  1  S   -0.964994  -1.017015   0.000000   0.000000   0.158245
    4  N  1  X    0.000000   0.000000  -0.598700   0.000000   0.000000
    5  N  1  Y    0.000000   0.000000   0.000000  -0.598700   0.000000
    6  N  1  Z   -0.339261  -0.292101   0.000000   0.000000  -0.309578
    7  N  1  X    0.000000   0.000000   0.647936   0.000000   0.000000
    8  N  1  Y    0.000000   0.000000   0.000000   0.647936   0.000000
    9  N  1  Z    0.453381   0.350793   0.000000   0.000000   1.019263
   10  N  2  S   -0.075873   0.090104   0.000000   0.000000   0.016531
   11  N  2  S    1.004803  -0.940167   0.000000   0.000000  -0.549357
   12  N  2  S   -0.964994   1.017015   0.000000   0.000000   0.158245
   13  N  2  X    0.000000   0.000000  -0.598700   0.000000   0.000000
   14  N  2  Y    0.000000   0.000000   0.000000  -0.598700   0.000000
   15  N  2  Z    0.339261  -0.292101   0.000000   0.000000   0.309578
   16  N  2  X    0.000000   0.000000   0.647936   0.000000   0.000000
   17  N  2  Y    0.000000   0.000000   0.000000   0.647936   0.000000
   18  N  2  Z   -0.453381   0.350793   0.000000   0.000000  -1.019263

                     16         17         18
                    0.0012     0.0012     0.0004
                     B1         B2         A1  
    1  N  1  S    0.000000   0.000000   0.014846
    2  N  1  S    0.000000   0.000000   1.195063
    3  N  1  S    0.000000   0.000000  -5.838681
    4  N  1  X    0.460021   0.000000   0.000000
    5  N  1  Y    0.000000   0.460021   0.000000
    6  N  1  Z    0.000000   0.000000  -0.058180
    7  N  1  X   -1.452443   0.000000   0.000000
    8  N  1  Y    0.000000  -1.452443   0.000000
    9  N  1  Z    0.000000   0.000000  -2.596576
   10  N  2  S    0.000000   0.000000  -0.014846
   11  N  2  S    0.000000   0.000000  -1.195063
   12  N  2  S    0.000000   0.000000   5.838681
   13  N  2  X   -0.460021   0.000000   0.000000
   14  N  2  Y    0.000000  -0.460021   0.000000
   15  N  2  Z    0.000000   0.000000  -0.058180
   16  N  2  X    1.452443   0.000000   0.000000
   17  N  2  Y    0.000000   1.452443   0.000000
   18  N  2  Z    0.000000   0.000000  -2.596576
 ..... DONE WITH ONE PARTICLE DENSITY MATRIX .....
 CPU     0: STEP CPU TIME=     0.95 TOTAL CPU TIME=       48.7 (    0.8 MIN)
 TOTAL WALL CLOCK TIME=       62.4 SECONDS, CPU UTILIZATION IS  78.12%

     --------------------------------------------------------
     ALDET CI PROPERTIES...FOR THE WAVEFUNCTION OF STATE    1
               USING THE EXPECTATION VALUE DENSITY
     --------------------------------------------------------

          -----------------
          ENERGY COMPONENTS
          -----------------

         WAVEFUNCTION NORMALIZATION =       1.0000000000

                ONE ELECTRON ENERGY =    -193.7066368541
                TWO ELECTRON ENERGY =      61.0294802343
           NUCLEAR REPULSION ENERGY =      23.5724411025
                                      ------------------
                       TOTAL ENERGY =    -109.1047155174

 ELECTRON-ELECTRON POTENTIAL ENERGY =      61.0294802343
  NUCLEUS-ELECTRON POTENTIAL ENERGY =    -302.8144174923
   NUCLEUS-NUCLEUS POTENTIAL ENERGY =      23.5724411025
                                      ------------------
             TOTAL POTENTIAL ENERGY =    -218.2124961555
               TOTAL KINETIC ENERGY =     109.1077806382
                 VIRIAL RATIO (V/T) =       1.9999719074

          ---------------------------------------
          MULLIKEN AND LOWDIN POPULATION ANALYSES
          ---------------------------------------

               ----- POPULATIONS IN EACH AO -----
                             MULLIKEN      LOWDIN
              1  N  1  S      1.99981     1.99490
              2  N  1  S      0.93905     0.84190
              3  N  1  S      0.87672     0.72754
              4  N  1  X      0.79369     0.71780
              5  N  1  Y      0.79369     0.71780
              6  N  1  Z      1.09630     1.07173
              7  N  1  X      0.21116     0.28705
              8  N  1  Y      0.21116     0.28705
              9  N  1  Z      0.07843     0.35423
             10  N  2  S      1.99981     1.99490
             11  N  2  S      0.93905     0.84190
             12  N  2  S      0.87672     0.72754
             13  N  2  X      0.79369     0.71780
             14  N  2  Y      0.79369     0.71780
             15  N  2  Z      1.09630     1.07173
             16  N  2  X      0.21116     0.28705
             17  N  2  Y      0.21116     0.28705
             18  N  2  Z      0.07843     0.35423

          ----- MULLIKEN ATOMIC OVERLAP POPULATIONS -----
          (OFF-DIAGONAL ELEMENTS NEED TO BE MULTIPLIED BY 2)

             1           2

    1    6.4905080
    2    0.5094920   6.4905080

          TOTAL MULLIKEN AND LOWDIN ATOMIC POPULATIONS
       ATOM         MULL.POP.    CHARGE          LOW.POP.     CHARGE
    1 N             7.000000    0.000000         7.000000    0.000000
    2 N             7.000000    0.000000         7.000000    0.000000

          ---------------------
          ELECTROSTATIC MOMENTS
          ---------------------

 POINT   1           X           Y           Z (BOHR)    CHARGE
                 0.000000    0.000000    1.039349        0.00 (A.U.)
         DX          DY          DZ         /D/  (DEBYE)
     0.000000    0.000000    0.000000    0.000000
 ...... END OF PROPERTY EVALUATION ......
 CPU     0: STEP CPU TIME=     0.01 TOTAL CPU TIME=       48.7 (    0.8 MIN)
 TOTAL WALL CLOCK TIME=       62.4 SECONDS, CPU UTILIZATION IS  78.03%
             119866880  WORDS OF DYNAMIC MEMORY USED
 EXECUTION OF GAMESS TERMINATED NORMALLY Thu Jan 17 17:42:59 2019
 DDI: 305760 bytes (0.3 MB / 0 MWords) used by master data server.

 ----------------------------------------
 CPU timing information for all processes
 ========================================
 0: 45.260 + 3.604 = 48.864
 1: 45.236 + 4.88 = 49.324
 2: 45.380 + 3.492 = 48.872
 3: 45.588 + 4.272 = 49.860
 4: 45.624 + 3.828 = 49.452
 5: 45.516 + 3.348 = 48.864
 6: 45.56 + 3.552 = 48.608
 7: 45.444 + 3.224 = 48.668
 8: 44.552 + 3.744 = 48.296
 9: 44.828 + 4.360 = 49.188
 10: 45.260 + 3.508 = 48.768
 11: 44.960 + 3.612 = 48.572
 12: 0.172 + 1.652 = 1.824
 13: 0.04 + 0.00 = 0.04
 14: 0.04 + 0.00 = 0.04
 15: 0.04 + 0.00 = 0.04
 16: 0.04 + 0.00 = 0.04
 17: 0.00 + 0.04 = 0.04
 18: 0.04 + 0.04 = 0.08
 19: 0.00 + 0.08 = 0.08
 20: 0.04 + 0.00 = 0.04
 21: 0.00 + 0.08 = 0.08
 22: 0.00 + 0.04 = 0.04
 23: 0.04 + 0.00 = 0.04
 ----------------------------------------
 ddikick.x: exited gracefully.
unset echo
----- accounting info -----
Files used on the master node localhost were:
-rw-rw-r-- 1 maho maho    13429 Jan 17 17:42 ./N2.SV/1.1/N2.SV.fullCI.1.1.gamess.dat
-rw------- 1 maho maho     1813 Jan 17 17:41 ./N2.SV/1.1/N2.SV.fullCI.1.1.gamess.F05
-rw-rw-r-- 1 maho maho   180016 Jan 17 17:41 ./N2.SV/1.1/N2.SV.fullCI.1.1.gamess.F08
-rw-rw-r-- 1 maho maho     1376 Jan 17 17:41 ./N2.SV/1.1/N2.SV.fullCI.1.1.gamess.F09
-rw-rw-r-- 1 maho maho  1865040 Jan 17 17:42 ./N2.SV/1.1/N2.SV.fullCI.1.1.gamess.F10
-rw-rw-r-- 1 maho maho 38216480 Jan 17 17:42 ./N2.SV/1.1/N2.SV.fullCI.1.1.gamess.F12
-rw------- 1 maho maho     1813 Jan 17 17:41 ./N2.SV/1.1/N2.SV.fullCI.1.1.gamess.inp
-rw-rw-r-- 1 maho maho    45931 Jan 17 17:43 ./N2.SV/1.1/N2.SV.fullCI.1.1.gamess.log
ls: No match.
ls: No match.
ls: No match.
Thu Jan 17 17:43:02 JST 2019
0.0u 0.0s 1:05.88 0.1% 0+0k 0+8io 0pf+0w
