----- GAMESS execution script 'rungms' -----
This job is running on host localhost
under operating system Linux at Thu Jan 17 17:47:35 JST 2019
Available scratch disk space (Kbyte units) at beginning of the job is
Filesystem     1K-blocks      Used Available Use% Mounted on
/dev/sda1      895286904 141742068 708043808  17% /
GAMESS temporary binary files will be written to .
GAMESS supplementary output files will be written to .
Copying input file N2.SV/1.5/N2.SV.fullCI.1.5.gamess.inp to your run's scratch directory...
cp N2.SV/1.5/N2.SV.fullCI.1.5.gamess.inp ./N2.SV/1.5/N2.SV.fullCI.1.5.gamess.F05
unset echo
/work/pubchem/pm6/pkg/gamess_intel/ddikick.x /work/pubchem/pm6/pkg/gamess_intel/gamess.00.x N2.SV/1.5/N2.SV.fullCI.1.5.gamess -ddi 12 12 localhost localhost localhost localhost localhost localhost localhost localhost localhost localhost localhost localhost -scr .

 Distributed Data Interface kickoff program.
 Initiating 12 compute processes on 12 nodes to run the following command:
 /work/pubchem/pm6/pkg/gamess_intel/gamess.00.x N2.SV/1.5/N2.SV.fullCI.1.5.gamess 

          ******************************************************
          *         GAMESS VERSION =  5 DEC 2014 (R1)          *
          *             FROM IOWA STATE UNIVERSITY             *
          * M.W.SCHMIDT, K.K.BALDRIDGE, J.A.BOATZ, S.T.ELBERT, *
          *   M.S.GORDON, J.H.JENSEN, S.KOSEKI, N.MATSUNAGA,   *
          *          K.A.NGUYEN, S.J.SU, T.L.WINDUS,           *
          *       TOGETHER WITH M.DUPUIS, J.A.MONTGOMERY       *
          *         J.COMPUT.CHEM.  14, 1347-1363(1993)        *
          **************** 64 BIT INTEL VERSION ****************

  SINCE 1993, STUDENTS AND POSTDOCS WORKING AT IOWA STATE UNIVERSITY
  AND ALSO IN THEIR VARIOUS JOBS AFTER LEAVING ISU HAVE MADE IMPORTANT
  CONTRIBUTIONS TO THE CODE:
     IVANA ADAMOVIC, CHRISTINE AIKENS, YURI ALEXEEV, POOJA ARORA,
     ANDREY ASADCHEV, ROB BELL, PRADIPTA BANDYOPADHYAY, JONATHAN BENTZ,
     BRETT BODE, KURT BRORSEN, CALEB CARLIN, GALINA CHABAN, WEI CHEN,
     CHEOL HO CHOI, PAUL DAY, ALBERT DEFUSCO, NUWAN DESILVA, TIM DUDLEY,
     DMITRI FEDOROV, GRAHAM FLETCHER, MARK FREITAG, KURT GLAESEMANN,
     DAN KEMP, GRANT MERRILL, NORIYUKI MINEZAWA, JONATHAN MULLIN,
     TAKESHI NAGATA, SEAN NEDD, HEATHER NETZLOFF, BOSILJKA NJEGIC, RYAN OLSON,
     MIKE PAK, SPENCER PRUITT, LUKE ROSKOP, JIM SHOEMAKER, LYUDMILA SLIPCHENKO,
     TONY SMITH, SAROM SOK, JIE SONG, TETSUYA TAKETSUGU, SIMON WEBB,
     PENG XU, SOOHAENG YOO, FEDERICO ZAHARIEV

  ADDITIONAL CODE HAS BEEN PROVIDED BY COLLABORATORS IN OTHER GROUPS:
     IOWA STATE UNIVERSITY:
          JOE IVANIC, AARON WEST, LAIMUTIS BYTAUTAS, KLAUS RUEDENBERG
     UNIVERSITY OF TOKYO: KIMIHIKO HIRAO, TAKAHITO NAKAJIMA,
          TAKAO TSUNEDA, MUNEAKI KAMIYA, SUSUMU YANAGISAWA,
          KIYOSHI YAGI, MAHITO CHIBA, SEIKEN TOKURA, NAOAKI KAWAKAMI
     UNIVERSITY OF AARHUS: FRANK JENSEN
     UNIVERSITY OF IOWA: VISVALDAS KAIRYS, HUI LI
     NATIONAL INST. OF STANDARDS AND TECHNOLOGY: WALT STEVENS, DAVID GARMER
     UNIVERSITY OF PISA: BENEDETTA MENNUCCI, JACOPO TOMASI
     UNIVERSITY OF MEMPHIS: HENRY KURTZ, PRAKASHAN KORAMBATH
     UNIVERSITY OF ALBERTA: TOBY ZENG, MARIUSZ KLOBUKOWSKI
     UNIVERSITY OF NEW ENGLAND: MARK SPACKMAN
     MIE UNIVERSITY: HIROAKI UMEDA
     NAT. INST. OF ADVANCED INDUSTRIAL SCIENCE AND TECHNOLOGY: KAZUO KITAURA
     MICHIGAN STATE UNIVERSITY:
          KAROL KOWALSKI, MARTA WLOCH, JEFFREY GOUR, JESSE LUTZ,
          WEI LI, PIOTR PIECUCH
     UNIVERSITY OF SILESIA: MONIKA MUSIAL, STANISLAW KUCHARSKI
     FACULTES UNIVERSITAIRES NOTRE-DAME DE LA PAIX:
          OLIVIER QUINET, BENOIT CHAMPAGNE
     UNIVERSITY OF CALIFORNIA - SANTA BARBARA: BERNARD KIRTMAN
     INSTITUTE FOR MOLECULAR SCIENCE:
          KAZUYA ISHIMURA, MICHIO KATOUDA, AND SHIGERU NAGASE
     UNIVERSITY OF NOTRE DAME: ANNA POMOGAEVA, DAN CHIPMAN
     KYUSHU UNIVERSITY:
          HARUYUKI NAKANO,
          FENG LONG GU, JACEK KORCHOWIEC, MARCIN MAKOWSKI, AND YURIKO AOKI,
          HIROTOSHI MORI AND EISAKU MIYOSHI
     PENNSYLVANIA STATE UNIVERSITY:
          TZVETELIN IORDANOV, CHET SWALINA, JONATHAN SKONE,
          SHARON HAMMES-SCHIFFER
     WASEDA UNIVERSITY:
          MASATO KOBAYASHI, TOMOKO AKAMA, TSUGUKI TOUMA,
          TAKESHI YOSHIKAWA, YASUHIRO IKABATA, HIROMI NAKAI
     NANJING UNIVERSITY: SHUHUA LI
     UNIVERSITY OF NEBRASKA:
          PEIFENG SU, DEJUN SI, NANDUN THELLAMUREGE, YALI WANG, HUI LI
     UNIVERSITY OF ZURICH: ROBERTO PEVERATI, KIM BALDRIDGE
     N. COPERNICUS UNIVERSITY AND JACKSON STATE UNIVERSITY:
          MARIA BARYSZ
     UNIVERSITY OF COPENHAGEN: CASPER STEINMANN
     TOKYO INSTITUTE OF TECHNOLOGY: HIROYA NAKATA
     NAGOYA UNIVERSITY: YOSHIO NISHIMOTO, STEPHAN IRLE


 PARALLEL VERSION RUNNING ON       12 PROCESSORS IN       12 NODES.

 EXECUTION OF GAMESS BEGUN Thu Jan 17 17:47:35 2019

            ECHO OF THE FIRST FEW INPUT CARDS -
 INPUT CARD> $CONTRL SCFTYP=RHF CITYP=ALDET $END                                            
 INPUT CARD> $GUESS GUESS=HUCKEL $END                                                       
 INPUT CARD> $SYSTEM MWORDS=300 $END                                                        
 INPUT CARD> $CIDET SZ=0 GROUP=C2V NCORE=2 NACT=16 NELS=10 NSTGSS=6 $END                    
 INPUT CARD> $DATA                                                                          
 INPUT CARD>N2...HF...Double-zeta basis                                                     
 INPUT CARD>Cnv   2                                                                         
 INPUT CARD>                                                                                
 INPUT CARD>N     7.0    0.0      0.0     0.0                                               
 INPUT CARD>S   7                                                                           
 INPUT CARD>  1   5909.0000000              0.0011900                                       
 INPUT CARD>  2    887.5000000              0.0090990                                       
 INPUT CARD>  3    204.7000000              0.0441450                                       
 INPUT CARD>  4     59.8400000              0.1504640                                       
 INPUT CARD>  5     20.0000000              0.3567410                                       
 INPUT CARD>  6      7.1930000              0.4465330                                       
 INPUT CARD>  7      2.6860000              0.1456030                                       
 INPUT CARD>S   2                                                                           
 INPUT CARD>  1      7.1930000             -0.1604050                                       
 INPUT CARD>  2      0.7000000              1.0582150                                       
 INPUT CARD>S   1                                                                           
 INPUT CARD>  1      0.2133000              1.0000000                                       
 INPUT CARD>P   4                                                                           
 INPUT CARD>  1     26.7900000              0.0182540                                       
 INPUT CARD>  2      5.9560000              0.1164610                                       
 INPUT CARD>  3      1.7070000              0.3901780                                       
 INPUT CARD>  4      0.5314000              0.6371020                                       
 INPUT CARD>P   1                                                                           
 INPUT CARD>  1      0.1654000              1.0000000                                       
 INPUT CARD>                                                                                
 INPUT CARD>N     7.0    0.0      0.0     1.5                                               
 INPUT CARD>S   7                                                                           
 INPUT CARD>  1   5909.0000000              0.0011900                                       
 INPUT CARD>  2    887.5000000              0.0090990                                       
 INPUT CARD>  3    204.7000000              0.0441450                                       
 INPUT CARD>  4     59.8400000              0.1504640                                       
 INPUT CARD>  5     20.0000000              0.3567410                                       
 INPUT CARD>  6      7.1930000              0.4465330                                       
 INPUT CARD>  7      2.6860000              0.1456030                                       
 INPUT CARD>S   2                                                                           
 INPUT CARD>  1      7.1930000             -0.1604050                                       
 INPUT CARD>  2      0.7000000              1.0582150                                       
 INPUT CARD>S   1                                                                           
 INPUT CARD>  1      0.2133000              1.0000000                                       
 INPUT CARD>P   4                                                                           
 INPUT CARD>  1     26.7900000              0.0182540                                       
 INPUT CARD>  2      5.9560000              0.1164610                                       
 INPUT CARD>  3      1.7070000              0.3901780                                       
 INPUT CARD>  4      0.5314000              0.6371020                                       
 INPUT CARD>P   1                                                                           
  300000000 WORDS OF MEMORY AVAILABLE


     RUN TITLE
     ---------
 N2...HF...Double-zeta basis                                                     

 THE POINT GROUP OF THE MOLECULE IS CNV     
 THE ORDER OF THE PRINCIPAL AXIS IS     2

 ATOM      ATOMIC                      COORDINATES (BOHR)
           CHARGE         X                   Y                   Z
 N           7.0     0.0000000000        0.0000000000        0.0000000000
 N           7.0     0.0000000000        0.0000000000        2.8345889816

          INTERNUCLEAR DISTANCES (ANGS.)
          ------------------------------

                1 N          2 N     

   1 N       0.0000000    1.5000000 *
   2 N       1.5000000 *  0.0000000  

  * ... LESS THAN  3.000


     ATOMIC BASIS SET
     ----------------
 THE CONTRACTED PRIMITIVE FUNCTIONS HAVE BEEN UNNORMALIZED
 THE CONTRACTED BASIS FUNCTIONS ARE NOW NORMALIZED TO UNITY

  SHELL TYPE  PRIMITIVE        EXPONENT          CONTRACTION COEFFICIENT(S)

 N         

      1   S       1          5909.0000000    0.001189999548
      1   S       2           887.5000000    0.009098996542
      1   S       3           204.7000000    0.044144983225
      1   S       4            59.8400000    0.150463942825
      1   S       5            20.0000000    0.356740864442
      1   S       6             7.1930000    0.446532830321
      1   S       7             2.6860000    0.145602944672

      2   S       8             7.1930000   -0.160405033446
      2   S       9             0.7000000    1.058215220651

      3   S      10             0.2133000    1.000000000000

      4   P      11            26.7900000    0.018253998243
      4   P      12             5.9560000    0.116460988791
      4   P      13             1.7070000    0.390177962446
      4   P      14             0.5314000    0.637101938680

      5   P      15             0.1654000    1.000000000000

 N         

      6   S      16          5909.0000000    0.001189999548
      6   S      17           887.5000000    0.009098996542
      6   S      18           204.7000000    0.044144983225
      6   S      19            59.8400000    0.150463942825
      6   S      20            20.0000000    0.356740864442
      6   S      21             7.1930000    0.446532830321
      6   S      22             2.6860000    0.145602944672

      7   S      23             7.1930000   -0.160405033446
      7   S      24             0.7000000    1.058215220651

      8   S      25             0.2133000    1.000000000000

      9   P      26            26.7900000    0.018253998243
      9   P      27             5.9560000    0.116460988791
      9   P      28             1.7070000    0.390177962446
      9   P      29             0.5314000    0.637101938680

     10   P      30             0.1654000    1.000000000000

 TOTAL NUMBER OF BASIS SET SHELLS             =   10
 NUMBER OF CARTESIAN GAUSSIAN BASIS FUNCTIONS =   18
 NUMBER OF ELECTRONS                          =   14
 CHARGE OF MOLECULE                           =    0
 SPIN MULTIPLICITY                            =    1
 NUMBER OF OCCUPIED ORBITALS (ALPHA)          =    7
 NUMBER OF OCCUPIED ORBITALS (BETA )          =    7
 TOTAL NUMBER OF ATOMS                        =    2
 THE NUCLEAR REPULSION ENERGY IS       17.2864568085

 THIS MOLECULE IS RECOGNIZED AS BEING LINEAR,
 ORBITAL LZ DEGENERACY TOLERANCE ETOLLZ= 1.00E-06

     $CONTRL OPTIONS
     ---------------
 SCFTYP=RHF          RUNTYP=ENERGY       EXETYP=RUN     
 MPLEVL=       0     CITYP =ALDET        CCTYP =NONE         VBTYP =NONE    
 DFTTYP=NONE         TDDFT =NONE    
 MULT  =       1     ICHARG=       0     NZVAR =       0     COORD =UNIQUE  
 PP    =NONE         RELWFN=NONE         LOCAL =NONE         NUMGRD=       F
 ISPHER=      -1     NOSYM =       0     MAXIT =      30     UNITS =ANGS    
 PLTORB=       F     MOLPLT=       F     AIMPAC=       F     FRIEND=        
 NPRINT=       7     IREST =       0     GEOM  =INPUT   
 NORMF =       0     NORMP =       0     ITOL  =      20     ICUT  =       9
 INTTYP=BEST         GRDTYP=BEST         QMTTOL= 1.0E-06

     $SYSTEM OPTIONS
     ---------------
  REPLICATED MEMORY=   300000000 WORDS (ON EVERY NODE).
 DISTRIBUTED MEMDDI=           0 MILLION WORDS IN AGGREGATE,
 MEMDDI DISTRIBUTED OVER  12 PROCESSORS IS           0 WORDS/PROCESSOR.
 TOTAL MEMORY REQUESTED ON EACH PROCESSOR=   300000000 WORDS.
 TIMLIM=      525600.00 MINUTES, OR     365.0 DAYS.
 PARALL= T  BALTYP=  DLB     KDIAG=    0  COREFL= F
 MXSEQ2=     300 MXSEQ3=     150  mem10=         0

          ----------------
          PROPERTIES INPUT
          ----------------

     MOMENTS            FIELD           POTENTIAL          DENSITY
 IEMOM =       1   IEFLD =       0   IEPOT =       0   IEDEN =       0
 WHERE =COMASS     WHERE =NUCLEI     WHERE =NUCLEI     WHERE =NUCLEI  
 OUTPUT=BOTH       OUTPUT=BOTH       OUTPUT=BOTH       OUTPUT=BOTH    
 IEMINT=       0   IEFINT=       0                     IEDINT=       0
                                                       MORB  =       0
          EXTRAPOLATION IN EFFECT
          SOSCF IN EFFECT
 ORBITAL PRINTING OPTION: NPREO=     1    18     2     1

     -------------------------------
     INTEGRAL TRANSFORMATION OPTIONS
     -------------------------------
     NWORD  =            0
     CUTOFF = 1.0E-09     MPTRAN =       0
     DIRTRF =       F     AOINTS =DUP     

          ----------------------
          INTEGRAL INPUT OPTIONS
          ----------------------
 NOPK  =       1 NORDER=       0 SCHWRZ=       F

     ------------------------------------------
     THE POINT GROUP IS CNV, NAXIS= 2, ORDER= 4
     ------------------------------------------

     DIMENSIONS OF THE SYMMETRY SUBSPACES ARE
 A1  =   10     A2  =    0     B1  =    4     B2  =    4

 ..... DONE SETTING UP THE RUN .....
 CPU     0: STEP CPU TIME=     0.02 TOTAL CPU TIME=        0.0 (    0.0 MIN)
 TOTAL WALL CLOCK TIME=        0.0 SECONDS, CPU UTILIZATION IS  66.67%

          ********************
          1 ELECTRON INTEGRALS
          ********************
 ...... END OF ONE-ELECTRON INTEGRALS ......
 CPU     0: STEP CPU TIME=     0.00 TOTAL CPU TIME=        0.0 (    0.0 MIN)
 TOTAL WALL CLOCK TIME=        0.1 SECONDS, CPU UTILIZATION IS  28.57%

          -------------
          GUESS OPTIONS
          -------------
          GUESS =HUCKEL            NORB  =       0          NORDER=       0
          MIX   =       F          PRTMO =       F          PUNMO =       F
          TOLZ  = 1.0E-08          TOLE  = 1.0E-05
          SYMDEN=       F          PURIFY=       F

 INITIAL GUESS ORBITALS GENERATED BY HUCKEL   ROUTINE.
 HUCKEL GUESS REQUIRES      4352 WORDS.

 SYMMETRIES FOR INITIAL GUESS ORBITALS FOLLOW.   BOTH SET(S).
     7 ORBITALS ARE OCCUPIED (    2 CORE ORBITALS).
     3=A1       4=A1       5=B2       6=B1       7=A1       8=B1       9=B2  
    10=A1      11=A1      12=A1      13=A1      14=A1      15=B1      16=B1  
    17=B2  
 ...... END OF INITIAL ORBITAL SELECTION ......
 CPU     0: STEP CPU TIME=     0.00 TOTAL CPU TIME=        0.0 (    0.0 MIN)
 TOTAL WALL CLOCK TIME=        0.1 SECONDS, CPU UTILIZATION IS  28.57%

                    ----------------------
                    AO INTEGRAL TECHNOLOGY
                    ----------------------
     S,P,L SHELL ROTATED AXIS INTEGRALS, REPROGRAMMED BY
        KAZUYA ISHIMURA (IMS) AND JOSE SIERRA (SYNSTAR).
     S,P,D,L SHELL ROTATED AXIS INTEGRALS PROGRAMMED BY
        KAZUYA ISHIMURA (INSTITUTE FOR MOLECULAR SCIENCE).
     S,P,D,F,G SHELL TO TOTAL QUARTET ANGULAR MOMENTUM SUM 5,
        ERIC PROGRAM BY GRAHAM FLETCHER (ELORET AND NASA ADVANCED
        SUPERCOMPUTING DIVISION, AMES RESEARCH CENTER).
     S,P,D,F,G,L SHELL GENERAL RYS QUADRATURE PROGRAMMED BY
        MICHEL DUPUIS (PACIFIC NORTHWEST NATIONAL LABORATORY).

          --------------------
          2 ELECTRON INTEGRALS
          --------------------

 THE -PK- OPTION IS OFF, THE INTEGRALS ARE NOT IN SUPERMATRIX FORM.
 STORING   15000 INTEGRALS/RECORD ON DISK, USING 12 BYTES/INTEGRAL.
 TWO ELECTRON INTEGRAL EVALUATION REQUIRES   89411 WORDS OF MEMORY.
 II,JST,KST,LST =  1  1  1  1 NREC =         1 INTLOC =    1
 II,JST,KST,LST =  2  1  1  1 NREC =         1 INTLOC =    2
 II,JST,KST,LST =  3  1  1  1 NREC =         1 INTLOC =    7
 II,JST,KST,LST =  4  1  1  1 NREC =         1 INTLOC =   12
 II,JST,KST,LST =  5  1  1  1 NREC =         1 INTLOC =   12
 II,JST,KST,LST =  6  1  1  1 NREC =         1 INTLOC =   99
 II,JST,KST,LST =  7  1  1  1 NREC =         1 INTLOC =   99
 II,JST,KST,LST =  8  1  1  1 NREC =         1 INTLOC =  193
 II,JST,KST,LST =  9  1  1  1 NREC =         1 INTLOC =  320
 II,JST,KST,LST = 10  1  1  1 NREC =         1 INTLOC =  416
 TOTAL NUMBER OF NONZERO TWO-ELECTRON INTEGRALS =                4349
         12 INTEGRAL RECORDS WERE STORED ON DISK FILE  8.
  ...... END OF TWO-ELECTRON INTEGRALS .....
 CPU     0: STEP CPU TIME=     0.01 TOTAL CPU TIME=        0.0 (    0.0 MIN)
 TOTAL WALL CLOCK TIME=        0.1 SECONDS, CPU UTILIZATION IS  37.50%

          --------------------------
                 RHF SCF CALCULATION
          --------------------------

     NUCLEAR ENERGY =        17.2864568085
     MAXIT =   30     NPUNCH=    2
     EXTRAP=T  DAMP=F  SHIFT=F  RSTRCT=F  DIIS=F  DEM=F  SOSCF=T
     DENSITY MATRIX CONV=  1.00E-06
     SOSCF WILL OPTIMIZE      77 ORBITAL ROTATIONS, SOGTOL=   0.250
     MEMORY REQUIRED FOR RHF ITERS=     32828 WORDS.

 ITER EX DEM     TOTAL ENERGY        E CHANGE  DENSITY CHANGE     ORB. GRAD
   1  0  0     -108.4146376894  -108.4146376894   0.210553616   0.000000000
          ---------------START SECOND ORDER SCF---------------
   2  1  0     -108.6359830246    -0.2213453352   0.073115193   0.064602951
   3  2  0     -108.6499552227    -0.0139721981   0.016275558   0.015228400
   4  3  0     -108.6511248484    -0.0011696257   0.003642745   0.001266274
   5  4  0     -108.6511347289    -0.0000098805   0.000543539   0.000374504
   6  5  0     -108.6511351611    -0.0000004322   0.000083440   0.000049614
   7  6  0     -108.6511351704    -0.0000000093   0.000018206   0.000006450
   8  7  0     -108.6511351706    -0.0000000002   0.000002642   0.000000937
   9  8  0     -108.6511351706    -0.0000000000   0.000000209   0.000000173
  10  9  0     -108.6511351706    -0.0000000000   0.000000041   0.000000027

          -----------------
          DENSITY CONVERGED
          -----------------
     TIME TO FORM FOCK OPERATORS=       0.0 SECONDS (       0.0 SEC/ITER)
     TIME TO SOLVE SCF EQUATIONS=       0.0 SECONDS (       0.0 SEC/ITER)

 FINAL RHF ENERGY IS     -108.6511351706 AFTER  10 ITERATIONS

 LZ VALUE ANALYSIS FOR THE MOS
 ----------------------------------------
 MO     1 (    1) HAS LZ(WEIGHT)= 0.00(100.0%) 
 MO     2 (    2) HAS LZ(WEIGHT)= 0.00(100.0%) 
 MO     3 (    3) HAS LZ(WEIGHT)= 0.00(100.0%) 
 MO     4 (    4) HAS LZ(WEIGHT)= 0.00(100.0%) 
 MO     5 (    5) HAS LZ(WEIGHT)= 0.00(100.0%) 
 MO     6 (    6) HAS LZ(WEIGHT)=-1.00( 50.0%)  1.00( 50.0%) 
 MO     7 (    6) HAS LZ(WEIGHT)=-1.00( 50.0%)  1.00( 50.0%) 
 MO     8 (    7) HAS LZ(WEIGHT)=-1.00( 50.0%)  1.00( 50.0%) 
 MO     9 (    7) HAS LZ(WEIGHT)=-1.00( 50.0%)  1.00( 50.0%) 
 MO    10 (    8) HAS LZ(WEIGHT)= 0.00(100.0%) 
 MO    11 (    9) HAS LZ(WEIGHT)= 0.00(100.0%) 
 MO    12 (   10) HAS LZ(WEIGHT)=-1.00( 50.0%)  1.00( 50.0%) 
 MO    13 (   10) HAS LZ(WEIGHT)=-1.00( 50.0%)  1.00( 50.0%) 
 MO    14 (   11) HAS LZ(WEIGHT)= 0.00(100.0%) 
 MO    15 (   12) HAS LZ(WEIGHT)=-1.00( 50.0%)  1.00( 50.0%) 
 MO    16 (   12) HAS LZ(WEIGHT)=-1.00( 50.0%)  1.00( 50.0%) 
 MO    17 (   13) HAS LZ(WEIGHT)= 0.00(100.0%) 
 MO    18 (   14) HAS LZ(WEIGHT)= 0.00(100.0%) 

          ------------
          EIGENVECTORS
          ------------

                      1          2          3          4          5
                  -15.8000   -15.7992    -1.2670    -0.8949    -0.5756
                     A1         A1         A1         A1         A1  
    1  N  1  S    0.706852   0.706935  -0.161189  -0.172049  -0.052714
    2  N  1  S    0.000309  -0.000103   0.368760   0.408069   0.113146
    3  N  1  S    0.000923   0.001479   0.267542   0.422479   0.218221
    4  N  1  X    0.000000   0.000000   0.000000   0.000000   0.000000
    5  N  1  Y    0.000000   0.000000   0.000000   0.000000   0.000000
    6  N  1  Z    0.001246   0.000955   0.155526  -0.135605  -0.528944
    7  N  1  X    0.000000   0.000000   0.000000   0.000000   0.000000
    8  N  1  Y    0.000000   0.000000   0.000000   0.000000   0.000000
    9  N  1  Z   -0.000531   0.000032   0.014972  -0.015656  -0.162994
   10  N  2  S    0.706852  -0.706935  -0.161189   0.172049  -0.052714
   11  N  2  S    0.000309   0.000103   0.368760  -0.408069   0.113146
   12  N  2  S    0.000923  -0.001479   0.267542  -0.422479   0.218221
   13  N  2  X    0.000000   0.000000   0.000000   0.000000   0.000000
   14  N  2  Y    0.000000   0.000000   0.000000   0.000000   0.000000
   15  N  2  Z   -0.001246   0.000955  -0.155526  -0.135605   0.528944
   16  N  2  X    0.000000   0.000000   0.000000   0.000000   0.000000
   17  N  2  Y    0.000000   0.000000   0.000000   0.000000   0.000000
   18  N  2  Z    0.000531   0.000032  -0.014972  -0.015656   0.162994

                      6          7          8          9         10
                   -0.4982    -0.4982    -0.0110    -0.0110     0.2428
                     B2         B1         B2         B1         A1  
    1  N  1  S    0.000000   0.000000   0.000000   0.000000  -0.093886
    2  N  1  S    0.000000   0.000000   0.000000   0.000000   0.181460
    3  N  1  S    0.000000   0.000000   0.000000   0.000000   1.003363
    4  N  1  X    0.000000   0.486117   0.000000   0.531030   0.000000
    5  N  1  Y    0.486117   0.000000   0.531030   0.000000   0.000000
    6  N  1  Z    0.000000   0.000000   0.000000   0.000000   0.482515
    7  N  1  X    0.000000   0.236997   0.000000   0.415900   0.000000
    8  N  1  Y    0.236997   0.000000   0.415900   0.000000   0.000000
    9  N  1  Z    0.000000   0.000000   0.000000   0.000000   0.991568
   10  N  2  S    0.000000   0.000000   0.000000   0.000000   0.093886
   11  N  2  S    0.000000   0.000000   0.000000   0.000000  -0.181460
   12  N  2  S    0.000000   0.000000   0.000000   0.000000  -1.003363
   13  N  2  X    0.000000   0.486117   0.000000  -0.531030   0.000000
   14  N  2  Y    0.486117   0.000000  -0.531030   0.000000   0.000000
   15  N  2  Z    0.000000   0.000000   0.000000   0.000000   0.482515
   16  N  2  X    0.000000   0.236997   0.000000  -0.415900   0.000000
   17  N  2  Y    0.236997   0.000000  -0.415900   0.000000   0.000000
   18  N  2  Z    0.000000   0.000000   0.000000   0.000000   0.991568

                     11         12         13         14         15
                    0.6037     0.6369     0.6369     0.6843     0.7149
                     A1         B1         B2         A1         B1  
    1  N  1  S   -0.011493   0.000000   0.000000   0.023938   0.000000
    2  N  1  S   -0.042263   0.000000   0.000000  -0.137779   0.000000
    3  N  1  S    0.856974   0.000000   0.000000   0.402501   0.000000
    4  N  1  X    0.000000   0.671962   0.000000   0.000000  -0.660358
    5  N  1  Y    0.000000   0.000000   0.671962   0.000000   0.000000
    6  N  1  Z   -0.727601   0.000000   0.000000   0.585868   0.000000
    7  N  1  X    0.000000  -0.652675   0.000000   0.000000   1.102272
    8  N  1  Y    0.000000   0.000000  -0.652675   0.000000   0.000000
    9  N  1  Z    1.221300   0.000000   0.000000  -0.903992   0.000000
   10  N  2  S    0.011493   0.000000   0.000000   0.023938   0.000000
   11  N  2  S    0.042263   0.000000   0.000000  -0.137779   0.000000
   12  N  2  S   -0.856974   0.000000   0.000000   0.402501   0.000000
   13  N  2  X    0.000000   0.671962   0.000000   0.000000   0.660358
   14  N  2  Y    0.000000   0.000000   0.671962   0.000000   0.000000
   15  N  2  Z   -0.727601   0.000000   0.000000  -0.585868   0.000000
   16  N  2  X    0.000000  -0.652675   0.000000   0.000000  -1.102272
   17  N  2  Y    0.000000   0.000000  -0.652675   0.000000   0.000000
   18  N  2  Z    1.221300   0.000000   0.000000   0.903992   0.000000

                     16         17         18
                    0.7149     0.9438     1.3952
                     B2         A1         A1  
    1  N  1  S    0.000000  -0.089604  -0.043947
    2  N  1  S    0.000000   1.144965   1.421902
    3  N  1  S    0.000000  -0.930227  -3.066197
    4  N  1  X    0.000000   0.000000   0.000000
    5  N  1  Y   -0.660358   0.000000   0.000000
    6  N  1  Z    0.000000   0.116937  -0.065763
    7  N  1  X    0.000000   0.000000   0.000000
    8  N  1  Y    1.102272   0.000000   0.000000
    9  N  1  Z    0.000000  -0.162307  -1.311776
   10  N  2  S    0.000000  -0.089604   0.043947
   11  N  2  S    0.000000   1.144965  -1.421902
   12  N  2  S    0.000000  -0.930227   3.066197
   13  N  2  X    0.000000   0.000000   0.000000
   14  N  2  Y    0.660358   0.000000   0.000000
   15  N  2  Z    0.000000  -0.116937  -0.065763
   16  N  2  X    0.000000   0.000000   0.000000
   17  N  2  Y   -1.102272   0.000000   0.000000
   18  N  2  Z    0.000000   0.162307  -1.311776
 ...... END OF RHF CALCULATION ......
 CPU     0: STEP CPU TIME=     0.00 TOTAL CPU TIME=        0.0 (    0.0 MIN)
 TOTAL WALL CLOCK TIME=        0.1 SECONDS, CPU UTILIZATION IS  33.33%

     ----------------------------------------------------------------
     PROPERTY VALUES FOR THE RHF   SELF-CONSISTENT FIELD WAVEFUNCTION
     ----------------------------------------------------------------

          -----------------
          ENERGY COMPONENTS
          -----------------

         WAVEFUNCTION NORMALIZATION =       1.0000000000

                ONE ELECTRON ENERGY =    -181.2090452408
                TWO ELECTRON ENERGY =      55.2714532617
           NUCLEAR REPULSION ENERGY =      17.2864568085
                                      ------------------
                       TOTAL ENERGY =    -108.6511351706

 ELECTRON-ELECTRON POTENTIAL ENERGY =      55.2714532617
  NUCLEUS-ELECTRON POTENTIAL ENERGY =    -288.7462807250
   NUCLEUS-NUCLEUS POTENTIAL ENERGY =      17.2864568085
                                      ------------------
             TOTAL POTENTIAL ENERGY =    -216.1883706548
               TOTAL KINETIC ENERGY =     107.5372354842
                 VIRIAL RATIO (V/T) =       2.0103582697

  ...... PI ENERGY ANALYSIS ......

 ENERGY ANALYSIS:
            FOCK ENERGY=    -70.6661387330
          BARE H ENERGY=   -181.2090452408
     ELECTRONIC ENERGY =   -125.9375919869
         KINETIC ENERGY=    107.5372354842
          N-N REPULSION=     17.2864568085
           TOTAL ENERGY=   -108.6511351784
        SIGMA PART(1+2)=   -111.0836082384
               (K,V1,2)=    101.5603784169   -255.0544475936     42.4104609383
           PI PART(1+2)=    -14.8539837485
               (K,V1,2)=      5.9768570673    -33.6918331314     12.8609923156
  SIGMA SKELETON, ERROR=    -93.7971514299     -0.0000000000
             MIXED PART= 0.00000E+00 0.00000E+00 0.00000E+00 0.00000E+00
 ...... END OF PI ENERGY ANALYSIS ......

          ---------------------------------------
          MULLIKEN AND LOWDIN POPULATION ANALYSES
          ---------------------------------------

               ----- POPULATIONS IN EACH AO -----
                             MULLIKEN      LOWDIN
              1  N  1  S      2.00001     1.99555
              2  N  1  S      1.01477     0.96008
              3  N  1  S      0.91064     0.81277
              4  N  1  X      0.66581     0.61084
              5  N  1  Y      0.66581     0.61084
              6  N  1  Z      0.91664     0.85592
              7  N  1  X      0.33419     0.38916
              8  N  1  Y      0.33419     0.38916
              9  N  1  Z      0.15795     0.37567
             10  N  2  S      2.00001     1.99555
             11  N  2  S      1.01477     0.96008
             12  N  2  S      0.91064     0.81277
             13  N  2  X      0.66581     0.61084
             14  N  2  Y      0.66581     0.61084
             15  N  2  Z      0.91664     0.85592
             16  N  2  X      0.33419     0.38916
             17  N  2  Y      0.33419     0.38916
             18  N  2  Z      0.15795     0.37567

          ----- MULLIKEN ATOMIC OVERLAP POPULATIONS -----
          (OFF-DIAGONAL ELEMENTS NEED TO BE MULTIPLIED BY 2)

             1           2

    1    6.5919199
    2    0.4080801   6.5919199

          TOTAL MULLIKEN AND LOWDIN ATOMIC POPULATIONS
       ATOM         MULL.POP.    CHARGE          LOW.POP.     CHARGE
    1 N             7.000000    0.000000         7.000000    0.000000
    2 N             7.000000    0.000000         7.000000   -0.000000

          ---------------------
          ELECTROSTATIC MOMENTS
          ---------------------

 POINT   1           X           Y           Z (BOHR)    CHARGE
                 0.000000    0.000000    1.417294        0.00 (A.U.)
         DX          DY          DZ         /D/  (DEBYE)
     0.000000    0.000000    0.000000    0.000000
 ...... END OF PROPERTY EVALUATION ......
 CPU     0: STEP CPU TIME=     0.00 TOTAL CPU TIME=        0.0 (    0.0 MIN)
 TOTAL WALL CLOCK TIME=        0.1 SECONDS, CPU UTILIZATION IS  27.27%

 DETERMINANT CI OPTIONS   NRNFG   NPFLG
 INTEGRAL TRANSFORMATION    1       0
 DIAGONALIZE HAMILTONIAN    1       0
 FORM 1E- DENSITY MATRIX    1       0
 FORM 2E- DENSITY MATRIX    0       0

     --------------------------------------------------
          AMES LABORATORY DETERMINANTAL FULL CI
     PROGRAM WRITTEN BY JOE IVANIC AND KLAUS RUEDENBERG
     --------------------------------------------------

 THE POINT GROUP                  =   C2V     
 THE STATE SYMMETRY               =   A1      
 NUMBER OF CORE ORBITALS          =    2
 NUMBER OF ACTIVE ORBITALS        =   16
 NUMBER OF ALPHA ELECTRONS        =    7 (   5 ACTIVE)
 NUMBER OF BETA ELECTRONS         =    7 (   5 ACTIVE)
 NUMBER OF OCCUPIED ORBITALS      =   18
 NUMBER OF CI STATES REQUESTED    =    1
 NUMBER OF CI STARTING VECTORS    =    6
 MAX. NO. OF CI EXPANSION VECTORS =   12
 SIZE OF INITIAL CI GUESS MATRIX  =  300
 MAX. NO. OF CI ITERS/STATE       =  100
 CI DIAGONALIZATION CRITERION     = 1.00E-06
 CI PROPERTIES WILL BE FOUND FOR ROOT NUMBER   1
 1E- DENSITY MATRIX OPTIONS ARE 1

 CORRELATION ENERGY ANALYSIS      =    F

 SYMMETRIES FOR THE   2 CORE,  16 ACTIVE ARE

     CORE= A1    A1  

   ACTIVE= A1    A1    A1    B2    B1    B2    B1    A1    A1    B1  
           B2    A1    B1    B2    A1    A1  

     --------------------------------------------
     PARTIAL TWO ELECTRON INTEGRAL TRANSFORMATION
     --------------------------------------------

 NUMBER OF CORE MOLECULAR ORBITALS     =    2
 NUMBER OF OCCUPIED MOLECULAR ORBITALS =   18
 TOTAL NUMBER OF MOLECULAR ORBITALS    =   18
 TOTAL NUMBER OF ATOMIC ORBITALS       =   18
 THRESHOLD FOR KEEPING TRANSFORMED 2E- INTEGRALS = 1.000E-09

 -------------------------------     ------------------------------
 DISTRIBUTED DATA TRANSFORMATION     PROGRAM WRITTEN BY G. FLETCHER
 -------------------------------     ------------------------------

 THE DISTRIBUTED MEMORY REQUIRED FOR THIS STEP IS MEMDDI=         1 MWORDS
 CREATING DISTRIBUTED STORAGE FOR [OCC OCC|OCC OCC] INTEGRALS
 DDI: Creating Array [0] - 171 x 171 = 29241 words.
 CREATING WORKSPACE OF SIZE VVOO
 DDI: Creating Array [1] - 171 x 171 = 29241 words.
 FOR   12 PROCESSORS, THE REPLICATED MEMORY NEEDED IS       58507 WORDS.

      DIRECT 4-INDEX TRANSFORMATION 
      SCHWARZ INEQUALITY TEST SKIPPED          0 INTEGRAL BLOCKS
 ----- FROZEN CORE ENERGY =       -97.9311592907
 ... END OF INTEGRAL TRANSFORMATION ...
 CPU     0: STEP CPU TIME=     0.02 TOTAL CPU TIME=        0.0 (    0.0 MIN)
 TOTAL WALL CLOCK TIME=        0.1 SECONDS, CPU UTILIZATION IS  33.33%

     --------------------------------------------------
          AMES LABORATORY DETERMINANTAL FULL CI
     PROGRAM WRITTEN BY JOE IVANIC AND KLAUS RUEDENBERG
     --------------------------------------------------

 THE NUMBER OF DETERMINANTS HAVING SPACE SYMMETRY A1 
 IN POINT GROUP C2V  WITH SZ=  0.0 IS        4777056
 THE DETERMINANT FULL CI REQUIRES       119865995 WORDS
 INITIAL CI VECTOR GUESS TIME  :          1.8
 INITIAL FULL CI ITERATION TIME:          5.8

 ITERATION      ENERGY           GRADIENT
     0     -108.8655686162     0.54663817
     1     -108.9814402783     0.23565622
     2     -108.9952040636     0.11491003
     3     -108.9981506751     0.05627144
     4     -108.9989131076     0.03171005
     5     -108.9991912481     0.01984163
     6     -108.9993070791     0.01190711
     7     -108.9993360535     0.00658351
     8     -108.9993508084     0.00475353
     9     -108.9993572084     0.00327562
    10     -108.9993596244     0.00187018
    11     -108.9993603821     0.00093562
    12     -108.9993605935     0.00038178
    13     -108.9993606212     0.00018659
    14     -108.9993606298     0.00008948
    15     -108.9993606319     0.00005043
    16     -108.9993606324     0.00002543
    17     -108.9993606325     0.00001217
    18     -108.9993606326     0.00000672
    19     -108.9993606326     0.00000395
    20     -108.9993606326     0.00000226
    21     -108.9993606326     0.00000120
    22     -108.9993606326     0.00000054

 CONVERGED STATE    1 ENERGY=     -108.9993606326 IN   22 ITERS

 ALL STATES CONVERGED.

 CI EIGENVECTORS WILL BE LABELED IN GROUP=C2V     
 PRINTING CI COEFFICIENTS LARGER THAN  0.050000

 STATE   1  ENERGY=      -108.9993606326  S=  0.00  SZ=  0.00  SPACE SYM=A1  

      ALPHA       |      BETA        | COEFFICIENT
------------------|------------------|------------
 1111100000000000 | 1111100000000000 |   0.8676188
 1111001000000000 | 1111001000000000 |  -0.2103510
 1110110000000000 | 1110110000000000 |  -0.2103510
 1111001000000000 | 1110110000000000 |   0.1087529
 1110110000000000 | 1111001000000000 |   0.1087529
 1110101000000000 | 1111010000000000 |   0.0864112
 1111010000000000 | 1110101000000000 |   0.0864112
 1110011000000000 | 1110011000000000 |   0.0856277
 1101100100000000 | 1101100100000000 |  -0.0524346
 ..... DONE WITH DETERMINANT CI COMPUTATION .....
 CPU     0: STEP CPU TIME=    65.19 TOTAL CPU TIME=       65.2 (    1.1 MIN)
 TOTAL WALL CLOCK TIME=       82.7 SECONDS, CPU UTILIZATION IS  78.87%

     ---------------------------
     ONE PARTICLE DENSITY MATRIX
     ---------------------------

 DENSITY MATRIX WILL BE SAVED FOR   1-TH STATE WITH S= 0.00

 CI EIGENSTATE   1 TOTAL ENERGY =     -108.9993606326

          NATURAL ORBITALS IN ATOMIC ORBITAL BASIS
          ----------------------------------------

                      1          2          3          4          5
                    2.0000     2.0000     1.9828     1.9697     1.9213
                     A1         A1         A1         A1         A1  
    1  N  1  S    0.706852   0.706935  -0.168328   0.172413   0.006285
    2  N  1  S    0.000309  -0.000103   0.371683  -0.402996  -0.032989
    3  N  1  S    0.000923   0.001479   0.339069  -0.431084   0.127456
    4  N  1  X    0.000000   0.000000   0.000000   0.000000   0.000000
    5  N  1  Y    0.000000   0.000000   0.000000   0.000000   0.000000
    6  N  1  Z    0.001246   0.000955  -0.029527   0.116832  -0.548976
    7  N  1  X    0.000000   0.000000   0.000000   0.000000   0.000000
    8  N  1  Y    0.000000   0.000000   0.000000   0.000000   0.000000
    9  N  1  Z   -0.000531   0.000032  -0.046861   0.023245  -0.160637
   10  N  2  S    0.706852  -0.706935  -0.168328  -0.172413   0.006285
   11  N  2  S    0.000309   0.000103   0.371683   0.402996  -0.032989
   12  N  2  S    0.000923  -0.001479   0.339069   0.431084   0.127456
   13  N  2  X    0.000000   0.000000   0.000000   0.000000   0.000000
   14  N  2  Y    0.000000   0.000000   0.000000   0.000000   0.000000
   15  N  2  Z   -0.001246   0.000955   0.029527   0.116832   0.548976
   16  N  2  X    0.000000   0.000000   0.000000   0.000000   0.000000
   17  N  2  Y    0.000000   0.000000   0.000000   0.000000   0.000000
   18  N  2  Z    0.000531   0.000032   0.046861   0.023245   0.160637

                      6          7          8          9         10
                    1.7897     1.7897     0.2102     0.2102     0.0772
                     B2         B1         B1         B2         A1  
    1  N  1  S    0.000000   0.000000   0.000000   0.000000  -0.070159
    2  N  1  S    0.000000   0.000000   0.000000   0.000000   0.206013
    3  N  1  S    0.000000   0.000000   0.000000   0.000000   0.275840
    4  N  1  X    0.000000   0.508530  -0.666079   0.000000   0.000000
    5  N  1  Y    0.508530   0.000000   0.000000   0.666079   0.000000
    6  N  1  Z    0.000000   0.000000   0.000000   0.000000   0.803289
    7  N  1  X    0.000000   0.214823  -0.157037   0.000000   0.000000
    8  N  1  Y    0.214823   0.000000   0.000000   0.157037   0.000000
    9  N  1  Z    0.000000   0.000000   0.000000   0.000000   0.121412
   10  N  2  S    0.000000   0.000000   0.000000   0.000000   0.070159
   11  N  2  S    0.000000   0.000000   0.000000   0.000000  -0.206013
   12  N  2  S    0.000000   0.000000   0.000000   0.000000  -0.275840
   13  N  2  X    0.000000   0.508530   0.666079   0.000000   0.000000
   14  N  2  Y    0.508530   0.000000   0.000000  -0.666079   0.000000
   15  N  2  Z    0.000000   0.000000   0.000000   0.000000   0.803289
   16  N  2  X    0.000000   0.214823   0.157037   0.000000   0.000000
   17  N  2  Y    0.214823   0.000000   0.000000  -0.157037   0.000000
   18  N  2  Z    0.000000   0.000000   0.000000   0.000000   0.121412

                     11         12         13         14         15
                    0.0129     0.0091     0.0086     0.0086     0.0045
                     A1         A1         B2         B1         A1  
    1  N  1  S   -0.088348   0.076010   0.000000   0.000000  -0.034396
    2  N  1  S    1.004678  -0.959681   0.000000   0.000000   0.574543
    3  N  1  S   -0.980155   0.984560   0.000000   0.000000  -0.233690
    4  N  1  X    0.000000   0.000000   0.000000  -0.655164   0.000000
    5  N  1  Y    0.000000   0.000000  -0.655164   0.000000   0.000000
    6  N  1  Z   -0.264050   0.320890   0.000000   0.000000   0.537510
    7  N  1  X    0.000000   0.000000   0.000000   0.660305   0.000000
    8  N  1  Y    0.000000   0.000000   0.660305   0.000000   0.000000
    9  N  1  Z    0.408265  -0.363325   0.000000   0.000000  -0.821983
   10  N  2  S   -0.088348  -0.076010   0.000000   0.000000  -0.034396
   11  N  2  S    1.004678   0.959681   0.000000   0.000000   0.574543
   12  N  2  S   -0.980155  -0.984560   0.000000   0.000000  -0.233690
   13  N  2  X    0.000000   0.000000   0.000000  -0.655164   0.000000
   14  N  2  Y    0.000000   0.000000  -0.655164   0.000000   0.000000
   15  N  2  Z    0.264050   0.320890   0.000000   0.000000  -0.537510
   16  N  2  X    0.000000   0.000000   0.000000   0.660305   0.000000
   17  N  2  Y    0.000000   0.000000   0.660305   0.000000   0.000000
   18  N  2  Z   -0.408265  -0.363325   0.000000   0.000000   0.821983

                     16         17         18
                    0.0023     0.0023     0.0009
                     B1         B2         A1  
    1  N  1  S    0.000000   0.000000   0.007287
    2  N  1  S    0.000000   0.000000   1.047475
    3  N  1  S    0.000000   0.000000  -3.176463
    4  N  1  X   -0.523836   0.000000   0.000000
    5  N  1  Y    0.000000  -0.523836   0.000000
    6  N  1  Z    0.000000   0.000000   0.151802
    7  N  1  X    1.167611   0.000000   0.000000
    8  N  1  Y    0.000000   1.167611   0.000000
    9  N  1  Z    0.000000   0.000000  -2.012087
   10  N  2  S    0.000000   0.000000  -0.007287
   11  N  2  S    0.000000   0.000000  -1.047475
   12  N  2  S    0.000000   0.000000   3.176463
   13  N  2  X    0.523836   0.000000   0.000000
   14  N  2  Y    0.000000   0.523836   0.000000
   15  N  2  Z    0.000000   0.000000   0.151802
   16  N  2  X   -1.167611   0.000000   0.000000
   17  N  2  Y    0.000000  -1.167611   0.000000
   18  N  2  Z    0.000000   0.000000  -2.012087
 ..... DONE WITH ONE PARTICLE DENSITY MATRIX .....
 CPU     0: STEP CPU TIME=     1.02 TOTAL CPU TIME=       66.3 (    1.1 MIN)
 TOTAL WALL CLOCK TIME=       84.2 SECONDS, CPU UTILIZATION IS  78.72%

     --------------------------------------------------------
     ALDET CI PROPERTIES...FOR THE WAVEFUNCTION OF STATE    1
               USING THE EXPECTATION VALUE DENSITY
     --------------------------------------------------------

          -----------------
          ENERGY COMPONENTS
          -----------------

         WAVEFUNCTION NORMALIZATION =       1.0000000000

                ONE ELECTRON ENERGY =    -181.5860806562
                TWO ELECTRON ENERGY =      55.3002632151
           NUCLEAR REPULSION ENERGY =      17.2864568085
                                      ------------------
                       TOTAL ENERGY =    -108.9993606326

 ELECTRON-ELECTRON POTENTIAL ENERGY =      55.3002632151
  NUCLEUS-ELECTRON POTENTIAL ENERGY =    -289.8423093184
   NUCLEUS-NUCLEUS POTENTIAL ENERGY =      17.2864568085
                                      ------------------
             TOTAL POTENTIAL ENERGY =    -217.2555892948
               TOTAL KINETIC ENERGY =     108.2562286622
                 VIRIAL RATIO (V/T) =       2.0068645655

          ---------------------------------------
          MULLIKEN AND LOWDIN POPULATION ANALYSES
          ---------------------------------------

               ----- POPULATIONS IN EACH AO -----
                             MULLIKEN      LOWDIN
              1  N  1  S      2.00001     1.99517
              2  N  1  S      0.98599     0.94383
              3  N  1  S      0.93728     0.82773
              4  N  1  X      0.72698     0.66987
              5  N  1  Y      0.72698     0.66987
              6  N  1  Z      0.90292     0.84677
              7  N  1  X      0.27842     0.33553
              8  N  1  Y      0.27842     0.33553
              9  N  1  Z      0.16298     0.37568
             10  N  2  S      2.00001     1.99517
             11  N  2  S      0.98599     0.94383
             12  N  2  S      0.93728     0.82773
             13  N  2  X      0.72698     0.66987
             14  N  2  Y      0.72698     0.66987
             15  N  2  Z      0.90292     0.84677
             16  N  2  X      0.27842     0.33553
             17  N  2  Y      0.27842     0.33553
             18  N  2  Z      0.16298     0.37568

          ----- MULLIKEN ATOMIC OVERLAP POPULATIONS -----
          (OFF-DIAGONAL ELEMENTS NEED TO BE MULTIPLIED BY 2)

             1           2

    1    6.7368280
    2    0.2631720   6.7368280

          TOTAL MULLIKEN AND LOWDIN ATOMIC POPULATIONS
       ATOM         MULL.POP.    CHARGE          LOW.POP.     CHARGE
    1 N             7.000000    0.000000         7.000000    0.000000
    2 N             7.000000    0.000000         7.000000    0.000000

          ---------------------
          ELECTROSTATIC MOMENTS
          ---------------------

 POINT   1           X           Y           Z (BOHR)    CHARGE
                 0.000000    0.000000    1.417294        0.00 (A.U.)
         DX          DY          DZ         /D/  (DEBYE)
     0.000000    0.000000   -0.000000    0.000000
 ...... END OF PROPERTY EVALUATION ......
 CPU     0: STEP CPU TIME=     0.00 TOTAL CPU TIME=       66.3 (    1.1 MIN)
 TOTAL WALL CLOCK TIME=       84.7 SECONDS, CPU UTILIZATION IS  78.27%
             119866886  WORDS OF DYNAMIC MEMORY USED
 EXECUTION OF GAMESS TERMINATED NORMALLY Thu Jan 17 17:49:00 2019
 DDI: 305760 bytes (0.3 MB / 0 MWords) used by master data server.

 ----------------------------------------
 CPU timing information for all processes
 ========================================
 0: 61.716 + 4.720 = 66.436
 1: 61.688 + 5.264 = 66.952
 2: 61.120 + 5.224 = 66.344
 3: 61.804 + 4.752 = 66.556
 4: 62.84 + 4.776 = 66.860
 5: 60.664 + 5.152 = 65.816
 6: 60.508 + 4.936 = 65.444
 7: 61.76 + 5.168 = 66.244
 8: 61.536 + 4.44 = 65.580
 9: 60.848 + 4.668 = 65.516
 10: 59.720 + 4.192 = 63.912
 11: 60.652 + 5.120 = 65.772
 12: 0.284 + 2.308 = 2.592
 13: 0.00 + 0.08 = 0.08
 14: 0.04 + 0.00 = 0.04
 15: 0.04 + 0.00 = 0.04
 16: 0.08 + 0.00 = 0.08
 17: 0.00 + 0.08 = 0.08
 18: 0.00 + 0.04 = 0.04
 19: 0.00 + 0.04 = 0.04
 20: 0.00 + 0.04 = 0.04
 21: 0.04 + 0.00 = 0.04
 22: 0.00 + 0.04 = 0.04
 23: 0.04 + 0.00 = 0.04
 ----------------------------------------
 ddikick.x: exited gracefully.
unset echo
----- accounting info -----
Files used on the master node localhost were:
-rw-rw-r-- 1 maho maho    13429 Jan 17 17:49 ./N2.SV/1.5/N2.SV.fullCI.1.5.gamess.dat
-rw------- 1 maho maho     1813 Jan 17 17:47 ./N2.SV/1.5/N2.SV.fullCI.1.5.gamess.F05
-rw-rw-r-- 1 maho maho   180016 Jan 17 17:47 ./N2.SV/1.5/N2.SV.fullCI.1.5.gamess.F08
-rw-rw-r-- 1 maho maho     1376 Jan 17 17:47 ./N2.SV/1.5/N2.SV.fullCI.1.5.gamess.F09
-rw-rw-r-- 1 maho maho  1865040 Jan 17 17:49 ./N2.SV/1.5/N2.SV.fullCI.1.5.gamess.F10
-rw-rw-r-- 1 maho maho 38216480 Jan 17 17:48 ./N2.SV/1.5/N2.SV.fullCI.1.5.gamess.F12
-rw------- 1 maho maho     1813 Jan 17 17:47 ./N2.SV/1.5/N2.SV.fullCI.1.5.gamess.inp
-rw-rw-r-- 1 maho maho    46402 Jan 17 17:49 ./N2.SV/1.5/N2.SV.fullCI.1.5.gamess.log
ls: No match.
ls: No match.
ls: No match.
Thu Jan 17 17:49:03 JST 2019
0.0u 0.0s 1:28.17 0.0% 0+0k 0+8io 0pf+0w
