----- GAMESS execution script 'rungms' -----
This job is running on host localhost
under operating system Linux at Thu Jan 17 17:43:13 JST 2019
Available scratch disk space (Kbyte units) at beginning of the job is
Filesystem     1K-blocks      Used Available Use% Mounted on
/dev/sda1      895286904 141741528 708044348  17% /
GAMESS temporary binary files will be written to .
GAMESS supplementary output files will be written to .
Copying input file N2.SV/1.2/N2.SV.fullCI.1.2.gamess.inp to your run's scratch directory...
cp N2.SV/1.2/N2.SV.fullCI.1.2.gamess.inp ./N2.SV/1.2/N2.SV.fullCI.1.2.gamess.F05
unset echo
/work/pubchem/pm6/pkg/gamess_intel/ddikick.x /work/pubchem/pm6/pkg/gamess_intel/gamess.00.x N2.SV/1.2/N2.SV.fullCI.1.2.gamess -ddi 12 12 localhost localhost localhost localhost localhost localhost localhost localhost localhost localhost localhost localhost -scr .

 Distributed Data Interface kickoff program.
 Initiating 12 compute processes on 12 nodes to run the following command:
 /work/pubchem/pm6/pkg/gamess_intel/gamess.00.x N2.SV/1.2/N2.SV.fullCI.1.2.gamess 

          ******************************************************
          *         GAMESS VERSION =  5 DEC 2014 (R1)          *
          *             FROM IOWA STATE UNIVERSITY             *
          * M.W.SCHMIDT, K.K.BALDRIDGE, J.A.BOATZ, S.T.ELBERT, *
          *   M.S.GORDON, J.H.JENSEN, S.KOSEKI, N.MATSUNAGA,   *
          *          K.A.NGUYEN, S.J.SU, T.L.WINDUS,           *
          *       TOGETHER WITH M.DUPUIS, J.A.MONTGOMERY       *
          *         J.COMPUT.CHEM.  14, 1347-1363(1993)        *
          **************** 64 BIT INTEL VERSION ****************

  SINCE 1993, STUDENTS AND POSTDOCS WORKING AT IOWA STATE UNIVERSITY
  AND ALSO IN THEIR VARIOUS JOBS AFTER LEAVING ISU HAVE MADE IMPORTANT
  CONTRIBUTIONS TO THE CODE:
     IVANA ADAMOVIC, CHRISTINE AIKENS, YURI ALEXEEV, POOJA ARORA,
     ANDREY ASADCHEV, ROB BELL, PRADIPTA BANDYOPADHYAY, JONATHAN BENTZ,
     BRETT BODE, KURT BRORSEN, CALEB CARLIN, GALINA CHABAN, WEI CHEN,
     CHEOL HO CHOI, PAUL DAY, ALBERT DEFUSCO, NUWAN DESILVA, TIM DUDLEY,
     DMITRI FEDOROV, GRAHAM FLETCHER, MARK FREITAG, KURT GLAESEMANN,
     DAN KEMP, GRANT MERRILL, NORIYUKI MINEZAWA, JONATHAN MULLIN,
     TAKESHI NAGATA, SEAN NEDD, HEATHER NETZLOFF, BOSILJKA NJEGIC, RYAN OLSON,
     MIKE PAK, SPENCER PRUITT, LUKE ROSKOP, JIM SHOEMAKER, LYUDMILA SLIPCHENKO,
     TONY SMITH, SAROM SOK, JIE SONG, TETSUYA TAKETSUGU, SIMON WEBB,
     PENG XU, SOOHAENG YOO, FEDERICO ZAHARIEV

  ADDITIONAL CODE HAS BEEN PROVIDED BY COLLABORATORS IN OTHER GROUPS:
     IOWA STATE UNIVERSITY:
          JOE IVANIC, AARON WEST, LAIMUTIS BYTAUTAS, KLAUS RUEDENBERG
     UNIVERSITY OF TOKYO: KIMIHIKO HIRAO, TAKAHITO NAKAJIMA,
          TAKAO TSUNEDA, MUNEAKI KAMIYA, SUSUMU YANAGISAWA,
          KIYOSHI YAGI, MAHITO CHIBA, SEIKEN TOKURA, NAOAKI KAWAKAMI
     UNIVERSITY OF AARHUS: FRANK JENSEN
     UNIVERSITY OF IOWA: VISVALDAS KAIRYS, HUI LI
     NATIONAL INST. OF STANDARDS AND TECHNOLOGY: WALT STEVENS, DAVID GARMER
     UNIVERSITY OF PISA: BENEDETTA MENNUCCI, JACOPO TOMASI
     UNIVERSITY OF MEMPHIS: HENRY KURTZ, PRAKASHAN KORAMBATH
     UNIVERSITY OF ALBERTA: TOBY ZENG, MARIUSZ KLOBUKOWSKI
     UNIVERSITY OF NEW ENGLAND: MARK SPACKMAN
     MIE UNIVERSITY: HIROAKI UMEDA
     NAT. INST. OF ADVANCED INDUSTRIAL SCIENCE AND TECHNOLOGY: KAZUO KITAURA
     MICHIGAN STATE UNIVERSITY:
          KAROL KOWALSKI, MARTA WLOCH, JEFFREY GOUR, JESSE LUTZ,
          WEI LI, PIOTR PIECUCH
     UNIVERSITY OF SILESIA: MONIKA MUSIAL, STANISLAW KUCHARSKI
     FACULTES UNIVERSITAIRES NOTRE-DAME DE LA PAIX:
          OLIVIER QUINET, BENOIT CHAMPAGNE
     UNIVERSITY OF CALIFORNIA - SANTA BARBARA: BERNARD KIRTMAN
     INSTITUTE FOR MOLECULAR SCIENCE:
          KAZUYA ISHIMURA, MICHIO KATOUDA, AND SHIGERU NAGASE
     UNIVERSITY OF NOTRE DAME: ANNA POMOGAEVA, DAN CHIPMAN
     KYUSHU UNIVERSITY:
          HARUYUKI NAKANO,
          FENG LONG GU, JACEK KORCHOWIEC, MARCIN MAKOWSKI, AND YURIKO AOKI,
          HIROTOSHI MORI AND EISAKU MIYOSHI
     PENNSYLVANIA STATE UNIVERSITY:
          TZVETELIN IORDANOV, CHET SWALINA, JONATHAN SKONE,
          SHARON HAMMES-SCHIFFER
     WASEDA UNIVERSITY:
          MASATO KOBAYASHI, TOMOKO AKAMA, TSUGUKI TOUMA,
          TAKESHI YOSHIKAWA, YASUHIRO IKABATA, HIROMI NAKAI
     NANJING UNIVERSITY: SHUHUA LI
     UNIVERSITY OF NEBRASKA:
          PEIFENG SU, DEJUN SI, NANDUN THELLAMUREGE, YALI WANG, HUI LI
     UNIVERSITY OF ZURICH: ROBERTO PEVERATI, KIM BALDRIDGE
     N. COPERNICUS UNIVERSITY AND JACKSON STATE UNIVERSITY:
          MARIA BARYSZ
     UNIVERSITY OF COPENHAGEN: CASPER STEINMANN
     TOKYO INSTITUTE OF TECHNOLOGY: HIROYA NAKATA
     NAGOYA UNIVERSITY: YOSHIO NISHIMOTO, STEPHAN IRLE


 PARALLEL VERSION RUNNING ON       12 PROCESSORS IN       12 NODES.

 EXECUTION OF GAMESS BEGUN Thu Jan 17 17:43:13 2019

            ECHO OF THE FIRST FEW INPUT CARDS -
 INPUT CARD> $CONTRL SCFTYP=RHF CITYP=ALDET $END                                            
 INPUT CARD> $GUESS GUESS=HUCKEL $END                                                       
 INPUT CARD> $SYSTEM MWORDS=300 $END                                                        
 INPUT CARD> $CIDET SZ=0 GROUP=C2V NCORE=2 NACT=16 NELS=10 NSTGSS=6 $END                    
 INPUT CARD> $DATA                                                                          
 INPUT CARD>N2...HF...Double-zeta basis                                                     
 INPUT CARD>Cnv   2                                                                         
 INPUT CARD>                                                                                
 INPUT CARD>N     7.0    0.0      0.0     0.0                                               
 INPUT CARD>S   7                                                                           
 INPUT CARD>  1   5909.0000000              0.0011900                                       
 INPUT CARD>  2    887.5000000              0.0090990                                       
 INPUT CARD>  3    204.7000000              0.0441450                                       
 INPUT CARD>  4     59.8400000              0.1504640                                       
 INPUT CARD>  5     20.0000000              0.3567410                                       
 INPUT CARD>  6      7.1930000              0.4465330                                       
 INPUT CARD>  7      2.6860000              0.1456030                                       
 INPUT CARD>S   2                                                                           
 INPUT CARD>  1      7.1930000             -0.1604050                                       
 INPUT CARD>  2      0.7000000              1.0582150                                       
 INPUT CARD>S   1                                                                           
 INPUT CARD>  1      0.2133000              1.0000000                                       
 INPUT CARD>P   4                                                                           
 INPUT CARD>  1     26.7900000              0.0182540                                       
 INPUT CARD>  2      5.9560000              0.1164610                                       
 INPUT CARD>  3      1.7070000              0.3901780                                       
 INPUT CARD>  4      0.5314000              0.6371020                                       
 INPUT CARD>P   1                                                                           
 INPUT CARD>  1      0.1654000              1.0000000                                       
 INPUT CARD>                                                                                
 INPUT CARD>N     7.0    0.0      0.0     1.2                                               
 INPUT CARD>S   7                                                                           
 INPUT CARD>  1   5909.0000000              0.0011900                                       
 INPUT CARD>  2    887.5000000              0.0090990                                       
 INPUT CARD>  3    204.7000000              0.0441450                                       
 INPUT CARD>  4     59.8400000              0.1504640                                       
 INPUT CARD>  5     20.0000000              0.3567410                                       
 INPUT CARD>  6      7.1930000              0.4465330                                       
 INPUT CARD>  7      2.6860000              0.1456030                                       
 INPUT CARD>S   2                                                                           
 INPUT CARD>  1      7.1930000             -0.1604050                                       
 INPUT CARD>  2      0.7000000              1.0582150                                       
 INPUT CARD>S   1                                                                           
 INPUT CARD>  1      0.2133000              1.0000000                                       
 INPUT CARD>P   4                                                                           
 INPUT CARD>  1     26.7900000              0.0182540                                       
 INPUT CARD>  2      5.9560000              0.1164610                                       
 INPUT CARD>  3      1.7070000              0.3901780                                       
 INPUT CARD>  4      0.5314000              0.6371020                                       
 INPUT CARD>P   1                                                                           
  300000000 WORDS OF MEMORY AVAILABLE


     RUN TITLE
     ---------
 N2...HF...Double-zeta basis                                                     

 THE POINT GROUP OF THE MOLECULE IS CNV     
 THE ORDER OF THE PRINCIPAL AXIS IS     2

 ATOM      ATOMIC                      COORDINATES (BOHR)
           CHARGE         X                   Y                   Z
 N           7.0     0.0000000000        0.0000000000        0.0000000000
 N           7.0     0.0000000000        0.0000000000        2.2676711853

          INTERNUCLEAR DISTANCES (ANGS.)
          ------------------------------

                1 N          2 N     

   1 N       0.0000000    1.2000000 *
   2 N       1.2000000 *  0.0000000  

  * ... LESS THAN  3.000


     ATOMIC BASIS SET
     ----------------
 THE CONTRACTED PRIMITIVE FUNCTIONS HAVE BEEN UNNORMALIZED
 THE CONTRACTED BASIS FUNCTIONS ARE NOW NORMALIZED TO UNITY

  SHELL TYPE  PRIMITIVE        EXPONENT          CONTRACTION COEFFICIENT(S)

 N         

      1   S       1          5909.0000000    0.001189999548
      1   S       2           887.5000000    0.009098996542
      1   S       3           204.7000000    0.044144983225
      1   S       4            59.8400000    0.150463942825
      1   S       5            20.0000000    0.356740864442
      1   S       6             7.1930000    0.446532830321
      1   S       7             2.6860000    0.145602944672

      2   S       8             7.1930000   -0.160405033446
      2   S       9             0.7000000    1.058215220651

      3   S      10             0.2133000    1.000000000000

      4   P      11            26.7900000    0.018253998243
      4   P      12             5.9560000    0.116460988791
      4   P      13             1.7070000    0.390177962446
      4   P      14             0.5314000    0.637101938680

      5   P      15             0.1654000    1.000000000000

 N         

      6   S      16          5909.0000000    0.001189999548
      6   S      17           887.5000000    0.009098996542
      6   S      18           204.7000000    0.044144983225
      6   S      19            59.8400000    0.150463942825
      6   S      20            20.0000000    0.356740864442
      6   S      21             7.1930000    0.446532830321
      6   S      22             2.6860000    0.145602944672

      7   S      23             7.1930000   -0.160405033446
      7   S      24             0.7000000    1.058215220651

      8   S      25             0.2133000    1.000000000000

      9   P      26            26.7900000    0.018253998243
      9   P      27             5.9560000    0.116460988791
      9   P      28             1.7070000    0.390177962446
      9   P      29             0.5314000    0.637101938680

     10   P      30             0.1654000    1.000000000000

 TOTAL NUMBER OF BASIS SET SHELLS             =   10
 NUMBER OF CARTESIAN GAUSSIAN BASIS FUNCTIONS =   18
 NUMBER OF ELECTRONS                          =   14
 CHARGE OF MOLECULE                           =    0
 SPIN MULTIPLICITY                            =    1
 NUMBER OF OCCUPIED ORBITALS (ALPHA)          =    7
 NUMBER OF OCCUPIED ORBITALS (BETA )          =    7
 TOTAL NUMBER OF ATOMS                        =    2
 THE NUCLEAR REPULSION ENERGY IS       21.6080710106

 THIS MOLECULE IS RECOGNIZED AS BEING LINEAR,
 ORBITAL LZ DEGENERACY TOLERANCE ETOLLZ= 1.00E-06

     $CONTRL OPTIONS
     ---------------
 SCFTYP=RHF          RUNTYP=ENERGY       EXETYP=RUN     
 MPLEVL=       0     CITYP =ALDET        CCTYP =NONE         VBTYP =NONE    
 DFTTYP=NONE         TDDFT =NONE    
 MULT  =       1     ICHARG=       0     NZVAR =       0     COORD =UNIQUE  
 PP    =NONE         RELWFN=NONE         LOCAL =NONE         NUMGRD=       F
 ISPHER=      -1     NOSYM =       0     MAXIT =      30     UNITS =ANGS    
 PLTORB=       F     MOLPLT=       F     AIMPAC=       F     FRIEND=        
 NPRINT=       7     IREST =       0     GEOM  =INPUT   
 NORMF =       0     NORMP =       0     ITOL  =      20     ICUT  =       9
 INTTYP=BEST         GRDTYP=BEST         QMTTOL= 1.0E-06

     $SYSTEM OPTIONS
     ---------------
  REPLICATED MEMORY=   300000000 WORDS (ON EVERY NODE).
 DISTRIBUTED MEMDDI=           0 MILLION WORDS IN AGGREGATE,
 MEMDDI DISTRIBUTED OVER  12 PROCESSORS IS           0 WORDS/PROCESSOR.
 TOTAL MEMORY REQUESTED ON EACH PROCESSOR=   300000000 WORDS.
 TIMLIM=      525600.00 MINUTES, OR     365.0 DAYS.
 PARALL= T  BALTYP=  DLB     KDIAG=    0  COREFL= F
 MXSEQ2=     300 MXSEQ3=     150  mem10=         0

          ----------------
          PROPERTIES INPUT
          ----------------

     MOMENTS            FIELD           POTENTIAL          DENSITY
 IEMOM =       1   IEFLD =       0   IEPOT =       0   IEDEN =       0
 WHERE =COMASS     WHERE =NUCLEI     WHERE =NUCLEI     WHERE =NUCLEI  
 OUTPUT=BOTH       OUTPUT=BOTH       OUTPUT=BOTH       OUTPUT=BOTH    
 IEMINT=       0   IEFINT=       0                     IEDINT=       0
                                                       MORB  =       0
          EXTRAPOLATION IN EFFECT
          SOSCF IN EFFECT
 ORBITAL PRINTING OPTION: NPREO=     1    18     2     1

     -------------------------------
     INTEGRAL TRANSFORMATION OPTIONS
     -------------------------------
     NWORD  =            0
     CUTOFF = 1.0E-09     MPTRAN =       0
     DIRTRF =       F     AOINTS =DUP     

          ----------------------
          INTEGRAL INPUT OPTIONS
          ----------------------
 NOPK  =       1 NORDER=       0 SCHWRZ=       F

     ------------------------------------------
     THE POINT GROUP IS CNV, NAXIS= 2, ORDER= 4
     ------------------------------------------

     DIMENSIONS OF THE SYMMETRY SUBSPACES ARE
 A1  =   10     A2  =    0     B1  =    4     B2  =    4

 ..... DONE SETTING UP THE RUN .....
 CPU     0: STEP CPU TIME=     0.02 TOTAL CPU TIME=        0.0 (    0.0 MIN)
 TOTAL WALL CLOCK TIME=        0.0 SECONDS, CPU UTILIZATION IS 100.00%

          ********************
          1 ELECTRON INTEGRALS
          ********************
 ...... END OF ONE-ELECTRON INTEGRALS ......
 CPU     0: STEP CPU TIME=     0.00 TOTAL CPU TIME=        0.0 (    0.0 MIN)
 TOTAL WALL CLOCK TIME=        0.1 SECONDS, CPU UTILIZATION IS  28.57%

          -------------
          GUESS OPTIONS
          -------------
          GUESS =HUCKEL            NORB  =       0          NORDER=       0
          MIX   =       F          PRTMO =       F          PUNMO =       F
          TOLZ  = 1.0E-08          TOLE  = 1.0E-05
          SYMDEN=       F          PURIFY=       F

 INITIAL GUESS ORBITALS GENERATED BY HUCKEL   ROUTINE.
 HUCKEL GUESS REQUIRES      4352 WORDS.

 SYMMETRIES FOR INITIAL GUESS ORBITALS FOLLOW.   BOTH SET(S).
     7 ORBITALS ARE OCCUPIED (    2 CORE ORBITALS).
     3=A1       4=A1       5=B1       6=B2       7=A1       8=B1       9=B2  
    10=A1      11=A1      12=A1      13=A1      14=A1      15=B1      16=B1  
    17=B2  
 ...... END OF INITIAL ORBITAL SELECTION ......
 CPU     0: STEP CPU TIME=     0.00 TOTAL CPU TIME=        0.0 (    0.0 MIN)
 TOTAL WALL CLOCK TIME=        0.1 SECONDS, CPU UTILIZATION IS  28.57%

                    ----------------------
                    AO INTEGRAL TECHNOLOGY
                    ----------------------
     S,P,L SHELL ROTATED AXIS INTEGRALS, REPROGRAMMED BY
        KAZUYA ISHIMURA (IMS) AND JOSE SIERRA (SYNSTAR).
     S,P,D,L SHELL ROTATED AXIS INTEGRALS PROGRAMMED BY
        KAZUYA ISHIMURA (INSTITUTE FOR MOLECULAR SCIENCE).
     S,P,D,F,G SHELL TO TOTAL QUARTET ANGULAR MOMENTUM SUM 5,
        ERIC PROGRAM BY GRAHAM FLETCHER (ELORET AND NASA ADVANCED
        SUPERCOMPUTING DIVISION, AMES RESEARCH CENTER).
     S,P,D,F,G,L SHELL GENERAL RYS QUADRATURE PROGRAMMED BY
        MICHEL DUPUIS (PACIFIC NORTHWEST NATIONAL LABORATORY).

          --------------------
          2 ELECTRON INTEGRALS
          --------------------

 THE -PK- OPTION IS OFF, THE INTEGRALS ARE NOT IN SUPERMATRIX FORM.
 STORING   15000 INTEGRALS/RECORD ON DISK, USING 12 BYTES/INTEGRAL.
 TWO ELECTRON INTEGRAL EVALUATION REQUIRES   89411 WORDS OF MEMORY.
 II,JST,KST,LST =  1  1  1  1 NREC =         1 INTLOC =    1
 II,JST,KST,LST =  2  1  1  1 NREC =         1 INTLOC =    2
 II,JST,KST,LST =  3  1  1  1 NREC =         1 INTLOC =    7
 II,JST,KST,LST =  4  1  1  1 NREC =         1 INTLOC =   17
 II,JST,KST,LST =  5  1  1  1 NREC =         1 INTLOC =   62
 II,JST,KST,LST =  6  1  1  1 NREC =         1 INTLOC =   62
 II,JST,KST,LST =  7  1  1  1 NREC =         1 INTLOC =   62
 II,JST,KST,LST =  8  1  1  1 NREC =         1 INTLOC =  151
 II,JST,KST,LST =  9  1  1  1 NREC =         1 INTLOC =  328
 II,JST,KST,LST = 10  1  1  1 NREC =         1 INTLOC =  559
 TOTAL NUMBER OF NONZERO TWO-ELECTRON INTEGRALS =                4350
         12 INTEGRAL RECORDS WERE STORED ON DISK FILE  8.
  ...... END OF TWO-ELECTRON INTEGRALS .....
 CPU     0: STEP CPU TIME=     0.02 TOTAL CPU TIME=        0.0 (    0.0 MIN)
 TOTAL WALL CLOCK TIME=        0.1 SECONDS, CPU UTILIZATION IS  50.00%

          --------------------------
                 RHF SCF CALCULATION
          --------------------------

     NUCLEAR ENERGY =        21.6080710106
     MAXIT =   30     NPUNCH=    2
     EXTRAP=T  DAMP=F  SHIFT=F  RSTRCT=F  DIIS=F  DEM=F  SOSCF=T
     DENSITY MATRIX CONV=  1.00E-06
     SOSCF WILL OPTIMIZE      77 ORBITAL ROTATIONS, SOGTOL=   0.250
     MEMORY REQUIRED FOR RHF ITERS=     32828 WORDS.

 ITER EX DEM     TOTAL ENERGY        E CHANGE  DENSITY CHANGE     ORB. GRAD
   1  0  0     -108.6159895878  -108.6159895878   0.254948764   0.000000000
          ---------------START SECOND ORDER SCF---------------
   2  1  0     -108.8424863380    -0.2264967502   0.058173245   0.056752255
   3  2  0     -108.8521020165    -0.0096156785   0.024333029   0.013046361
   4  3  0     -108.8526586091    -0.0005565926   0.001085790   0.000651353
   5  4  0     -108.8526603604    -0.0000017513   0.000154391   0.000122780
   6  5  0     -108.8526604483    -0.0000000879   0.000016971   0.000017973
   7  6  0     -108.8526604491    -0.0000000008   0.000003188   0.000002591
   8  7  0     -108.8526604491    -0.0000000000   0.000000500   0.000000375
   9  8  0     -108.8526604491    -0.0000000000   0.000000093   0.000000061

          -----------------
          DENSITY CONVERGED
          -----------------
     TIME TO FORM FOCK OPERATORS=       0.0 SECONDS (       0.0 SEC/ITER)
     TIME TO SOLVE SCF EQUATIONS=       0.0 SECONDS (       0.0 SEC/ITER)

 FINAL RHF ENERGY IS     -108.8526604491 AFTER   9 ITERATIONS

 LZ VALUE ANALYSIS FOR THE MOS
 ----------------------------------------
 MO     1 (    1) HAS LZ(WEIGHT)= 0.00(100.0%) 
 MO     2 (    2) HAS LZ(WEIGHT)= 0.00(100.0%) 
 MO     3 (    3) HAS LZ(WEIGHT)= 0.00(100.0%) 
 MO     4 (    4) HAS LZ(WEIGHT)= 0.00(100.0%) 
 MO     5 (    5) HAS LZ(WEIGHT)= 0.00(100.0%) 
 MO     6 (    6) HAS LZ(WEIGHT)=-1.00( 50.0%)  1.00( 50.0%) 
 MO     7 (    6) HAS LZ(WEIGHT)=-1.00( 50.0%)  1.00( 50.0%) 
 MO     8 (    7) HAS LZ(WEIGHT)=-1.00( 50.0%)  1.00( 50.0%) 
 MO     9 (    7) HAS LZ(WEIGHT)=-1.00( 50.0%)  1.00( 50.0%) 
 MO    10 (    8) HAS LZ(WEIGHT)= 0.00(100.0%) 
 MO    11 (    9) HAS LZ(WEIGHT)= 0.00(100.0%) 
 MO    12 (   10) HAS LZ(WEIGHT)=-1.00( 50.0%)  1.00( 50.0%) 
 MO    13 (   10) HAS LZ(WEIGHT)=-1.00( 50.0%)  1.00( 50.0%) 
 MO    14 (   11) HAS LZ(WEIGHT)=-1.00( 50.0%)  1.00( 50.0%) 
 MO    15 (   11) HAS LZ(WEIGHT)=-1.00( 50.0%)  1.00( 50.0%) 
 MO    16 (   12) HAS LZ(WEIGHT)= 0.00(100.0%) 
 MO    17 (   13) HAS LZ(WEIGHT)= 0.00(100.0%) 
 MO    18 (   14) HAS LZ(WEIGHT)= 0.00(100.0%) 

          ------------
          EIGENVECTORS
          ------------

                      1          2          3          4          5
                  -15.7419   -15.7398    -1.4488    -0.8072    -0.6155
                     A1         A1         A1         A1         A1  
    1  N  1  S    0.706599  -0.706848  -0.164729   0.162182   0.060019
    2  N  1  S    0.001093  -0.000443   0.370810  -0.378127  -0.101895
    3  N  1  S    0.000786  -0.002372   0.192919  -0.457726  -0.303489
    4  N  1  X    0.000000   0.000000   0.000000   0.000000   0.000000
    5  N  1  Y    0.000000   0.000000   0.000000   0.000000   0.000000
    6  N  1  Z    0.001800  -0.001568   0.235061   0.204672   0.527258
    7  N  1  X    0.000000   0.000000   0.000000   0.000000   0.000000
    8  N  1  Y    0.000000   0.000000   0.000000   0.000000   0.000000
    9  N  1  Z   -0.000853  -0.000317  -0.011670   0.030108   0.112916
   10  N  2  S    0.706599   0.706848  -0.164729  -0.162182   0.060019
   11  N  2  S    0.001093   0.000443   0.370810   0.378127  -0.101895
   12  N  2  S    0.000786   0.002372   0.192919   0.457726  -0.303489
   13  N  2  X    0.000000   0.000000   0.000000   0.000000   0.000000
   14  N  2  Y    0.000000   0.000000   0.000000   0.000000   0.000000
   15  N  2  Z   -0.001800  -0.001568  -0.235061   0.204672  -0.527258
   16  N  2  X    0.000000   0.000000   0.000000   0.000000   0.000000
   17  N  2  Y    0.000000   0.000000   0.000000   0.000000   0.000000
   18  N  2  Z    0.000853  -0.000317   0.011670   0.030108  -0.112916

                      6          7          8          9         10
                   -0.5838    -0.5838     0.0950     0.0950     0.3964
                     B2         B1         B2         B1         A1  
    1  N  1  S    0.000000   0.000000   0.000000   0.000000  -0.099178
    2  N  1  S    0.000000   0.000000   0.000000   0.000000   0.109851
    3  N  1  S    0.000000   0.000000   0.000000   0.000000   2.422440
    4  N  1  X    0.000000   0.502493   0.000000   0.522188   0.000000
    5  N  1  Y    0.502493   0.000000  -0.522188   0.000000   0.000000
    6  N  1  Z    0.000000   0.000000   0.000000   0.000000   0.090218
    7  N  1  X    0.000000   0.188553   0.000000   0.572771   0.000000
    8  N  1  Y    0.188553   0.000000  -0.572771   0.000000   0.000000
    9  N  1  Z    0.000000   0.000000   0.000000   0.000000   1.759551
   10  N  2  S    0.000000   0.000000   0.000000   0.000000   0.099178
   11  N  2  S    0.000000   0.000000   0.000000   0.000000  -0.109851
   12  N  2  S    0.000000   0.000000   0.000000   0.000000  -2.422440
   13  N  2  X    0.000000   0.502493   0.000000  -0.522188   0.000000
   14  N  2  Y    0.502493   0.000000   0.522188   0.000000   0.000000
   15  N  2  Z    0.000000   0.000000   0.000000   0.000000   0.090218
   16  N  2  X    0.000000   0.188553   0.000000  -0.572771   0.000000
   17  N  2  Y    0.188553   0.000000   0.572771   0.000000   0.000000
   18  N  2  Z    0.000000   0.000000   0.000000   0.000000   1.759551

                     11         12         13         14         15
                    0.6060     0.6177     0.6177     0.7477     0.7477
                     A1         B2         B1         B2         B1  
    1  N  1  S   -0.012122   0.000000   0.000000   0.000000   0.000000
    2  N  1  S   -0.131002   0.000000   0.000000   0.000000   0.000000
    3  N  1  S   -0.208876   0.000000   0.000000   0.000000   0.000000
    4  N  1  X    0.000000   0.000000  -0.632771   0.000000   0.698015
    5  N  1  Y    0.000000  -0.632771   0.000000   0.698015   0.000000
    6  N  1  Z   -0.459012   0.000000   0.000000   0.000000   0.000000
    7  N  1  X    0.000000   0.000000   0.646789   0.000000  -1.239969
    8  N  1  Y    0.000000   0.646789   0.000000  -1.239969   0.000000
    9  N  1  Z    1.053150   0.000000   0.000000   0.000000   0.000000
   10  N  2  S   -0.012122   0.000000   0.000000   0.000000   0.000000
   11  N  2  S   -0.131002   0.000000   0.000000   0.000000   0.000000
   12  N  2  S   -0.208876   0.000000   0.000000   0.000000   0.000000
   13  N  2  X    0.000000   0.000000  -0.632771   0.000000  -0.698015
   14  N  2  Y    0.000000  -0.632771   0.000000  -0.698015   0.000000
   15  N  2  Z    0.459012   0.000000   0.000000   0.000000   0.000000
   16  N  2  X    0.000000   0.000000   0.646789   0.000000   1.239969
   17  N  2  Y    0.000000   0.646789   0.000000   1.239969   0.000000
   18  N  2  Z   -1.053150   0.000000   0.000000   0.000000   0.000000

                     16         17         18
                    0.8987     0.9139     1.5596
                     A1         A1         A1  
    1  N  1  S   -0.060648  -0.079524   0.050972
    2  N  1  S    0.218163   1.144965  -1.524092
    3  N  1  S    0.189467  -0.970712   4.492422
    4  N  1  X    0.000000   0.000000   0.000000
    5  N  1  Y    0.000000   0.000000   0.000000
    6  N  1  Z    1.008403  -0.139775   0.095761
    7  N  1  X    0.000000   0.000000   0.000000
    8  N  1  Y    0.000000   0.000000   0.000000
    9  N  1  Z   -0.319819   0.034657   1.701405
   10  N  2  S    0.060648  -0.079524  -0.050972
   11  N  2  S   -0.218163   1.144965   1.524092
   12  N  2  S   -0.189467  -0.970712  -4.492422
   13  N  2  X    0.000000   0.000000   0.000000
   14  N  2  Y    0.000000   0.000000   0.000000
   15  N  2  Z    1.008403   0.139775   0.095761
   16  N  2  X    0.000000   0.000000   0.000000
   17  N  2  Y    0.000000   0.000000   0.000000
   18  N  2  Z   -0.319819  -0.034657   1.701405
 ...... END OF RHF CALCULATION ......
 CPU     0: STEP CPU TIME=     0.00 TOTAL CPU TIME=        0.0 (    0.0 MIN)
 TOTAL WALL CLOCK TIME=        0.1 SECONDS, CPU UTILIZATION IS  44.44%

     ----------------------------------------------------------------
     PROPERTY VALUES FOR THE RHF   SELF-CONSISTENT FIELD WAVEFUNCTION
     ----------------------------------------------------------------

          -----------------
          ENERGY COMPONENTS
          -----------------

         WAVEFUNCTION NORMALIZATION =       1.0000000000

                ONE ELECTRON ENERGY =    -189.8799544762
                TWO ELECTRON ENERGY =      59.4192230164
           NUCLEAR REPULSION ENERGY =      21.6080710106
                                      ------------------
                       TOTAL ENERGY =    -108.8526604491

 ELECTRON-ELECTRON POTENTIAL ENERGY =      59.4192230164
  NUCLEUS-ELECTRON POTENTIAL ENERGY =    -298.1859374348
   NUCLEUS-NUCLEUS POTENTIAL ENERGY =      21.6080710106
                                      ------------------
             TOTAL POTENTIAL ENERGY =    -217.1586434077
               TOTAL KINETIC ENERGY =     108.3059829586
                 VIRIAL RATIO (V/T) =       2.0050475281

  ...... PI ENERGY ANALYSIS ......

 ENERGY ANALYSIS:
            FOCK ENERGY=    -71.0415085807
          BARE H ENERGY=   -189.8799544762
     ELECTRONIC ENERGY =   -130.4607315284
         KINETIC ENERGY=    108.3059829586
          N-N REPULSION=     21.6080710106
           TOTAL ENERGY=   -108.8526605178
        SIGMA PART(1+2)=   -114.0452622936
               (K,V1,2)=    101.9696145694   -261.3537471666     45.3388703037
           PI PART(1+2)=    -16.4154692349
               (K,V1,2)=      6.3363683892    -36.8321902681     14.0803526441
  SIGMA SKELETON, ERROR=    -92.4371912829     -0.0000000000
             MIXED PART= 0.00000E+00 0.00000E+00 0.00000E+00 0.00000E+00
 ...... END OF PI ENERGY ANALYSIS ......

          ---------------------------------------
          MULLIKEN AND LOWDIN POPULATION ANALYSES
          ---------------------------------------

               ----- POPULATIONS IN EACH AO -----
                             MULLIKEN      LOWDIN
              1  N  1  S      1.99987     1.99497
              2  N  1  S      0.96758     0.88017
              3  N  1  S      0.89081     0.74330
              4  N  1  X      0.73147     0.66194
              5  N  1  Y      0.73147     0.66194
              6  N  1  Z      1.07370     1.03461
              7  N  1  X      0.26853     0.33806
              8  N  1  Y      0.26853     0.33806
              9  N  1  Z      0.06804     0.34695
             10  N  2  S      1.99987     1.99497
             11  N  2  S      0.96758     0.88017
             12  N  2  S      0.89081     0.74330
             13  N  2  X      0.73147     0.66194
             14  N  2  Y      0.73147     0.66194
             15  N  2  Z      1.07370     1.03461
             16  N  2  X      0.26853     0.33806
             17  N  2  Y      0.26853     0.33806
             18  N  2  Z      0.06804     0.34695

          ----- MULLIKEN ATOMIC OVERLAP POPULATIONS -----
          (OFF-DIAGONAL ELEMENTS NEED TO BE MULTIPLIED BY 2)

             1           2

    1    6.4853110
    2    0.5146890   6.4853110

          TOTAL MULLIKEN AND LOWDIN ATOMIC POPULATIONS
       ATOM         MULL.POP.    CHARGE          LOW.POP.     CHARGE
    1 N             7.000000    0.000000         7.000000    0.000000
    2 N             7.000000   -0.000000         7.000000   -0.000000

          ---------------------
          ELECTROSTATIC MOMENTS
          ---------------------

 POINT   1           X           Y           Z (BOHR)    CHARGE
                 0.000000    0.000000    1.133836        0.00 (A.U.)
         DX          DY          DZ         /D/  (DEBYE)
     0.000000    0.000000    0.000000    0.000000
 ...... END OF PROPERTY EVALUATION ......
 CPU     0: STEP CPU TIME=     0.01 TOTAL CPU TIME=        0.0 (    0.0 MIN)
 TOTAL WALL CLOCK TIME=        0.1 SECONDS, CPU UTILIZATION IS  38.46%

 DETERMINANT CI OPTIONS   NRNFG   NPFLG
 INTEGRAL TRANSFORMATION    1       0
 DIAGONALIZE HAMILTONIAN    1       0
 FORM 1E- DENSITY MATRIX    1       0
 FORM 2E- DENSITY MATRIX    0       0

     --------------------------------------------------
          AMES LABORATORY DETERMINANTAL FULL CI
     PROGRAM WRITTEN BY JOE IVANIC AND KLAUS RUEDENBERG
     --------------------------------------------------

 THE POINT GROUP                  =   C2V     
 THE STATE SYMMETRY               =   A1      
 NUMBER OF CORE ORBITALS          =    2
 NUMBER OF ACTIVE ORBITALS        =   16
 NUMBER OF ALPHA ELECTRONS        =    7 (   5 ACTIVE)
 NUMBER OF BETA ELECTRONS         =    7 (   5 ACTIVE)
 NUMBER OF OCCUPIED ORBITALS      =   18
 NUMBER OF CI STATES REQUESTED    =    1
 NUMBER OF CI STARTING VECTORS    =    6
 MAX. NO. OF CI EXPANSION VECTORS =   12
 SIZE OF INITIAL CI GUESS MATRIX  =  300
 MAX. NO. OF CI ITERS/STATE       =  100
 CI DIAGONALIZATION CRITERION     = 1.00E-06
 CI PROPERTIES WILL BE FOUND FOR ROOT NUMBER   1
 1E- DENSITY MATRIX OPTIONS ARE 1

 CORRELATION ENERGY ANALYSIS      =    F

 SYMMETRIES FOR THE   2 CORE,  16 ACTIVE ARE

     CORE= A1    A1  

   ACTIVE= A1    A1    A1    B2    B1    B2    B1    A1    A1    B2  
           B1    B2    B1    A1    A1    A1  

     --------------------------------------------
     PARTIAL TWO ELECTRON INTEGRAL TRANSFORMATION
     --------------------------------------------

 NUMBER OF CORE MOLECULAR ORBITALS     =    2
 NUMBER OF OCCUPIED MOLECULAR ORBITALS =   18
 TOTAL NUMBER OF MOLECULAR ORBITALS    =   18
 TOTAL NUMBER OF ATOMIC ORBITALS       =   18
 THRESHOLD FOR KEEPING TRANSFORMED 2E- INTEGRALS = 1.000E-09

 -------------------------------     ------------------------------
 DISTRIBUTED DATA TRANSFORMATION     PROGRAM WRITTEN BY G. FLETCHER
 -------------------------------     ------------------------------

 THE DISTRIBUTED MEMORY REQUIRED FOR THIS STEP IS MEMDDI=         1 MWORDS
 CREATING DISTRIBUTED STORAGE FOR [OCC OCC|OCC OCC] INTEGRALS
 DDI: Creating Array [0] - 171 x 171 = 29241 words.
 CREATING WORKSPACE OF SIZE VVOO
 DDI: Creating Array [1] - 171 x 171 = 29241 words.
 FOR   12 PROCESSORS, THE REPLICATED MEMORY NEEDED IS       58507 WORDS.

      DIRECT 4-INDEX TRANSFORMATION 
      SCHWARZ INEQUALITY TEST SKIPPED          0 INTEGRAL BLOCKS
 ----- FROZEN CORE ENERGY =      -100.0477958857
 ... END OF INTEGRAL TRANSFORMATION ...
 CPU     0: STEP CPU TIME=     0.00 TOTAL CPU TIME=        0.0 (    0.0 MIN)
 TOTAL WALL CLOCK TIME=        0.2 SECONDS, CPU UTILIZATION IS  29.41%

     --------------------------------------------------
          AMES LABORATORY DETERMINANTAL FULL CI
     PROGRAM WRITTEN BY JOE IVANIC AND KLAUS RUEDENBERG
     --------------------------------------------------

 THE NUMBER OF DETERMINANTS HAVING SPACE SYMMETRY A1 
 IN POINT GROUP C2V  WITH SZ=  0.0 IS        4777056
 THE DETERMINANT FULL CI REQUIRES       119865995 WORDS
 INITIAL CI VECTOR GUESS TIME  :          2.1
 INITIAL FULL CI ITERATION TIME:          5.6

 ITERATION      ENERGY           GRADIENT
     0     -108.9909666355     0.56533361
     1     -109.0955946376     0.20531956
     2     -109.1052958860     0.07696077
     3     -109.1064633283     0.03276350
     4     -109.1066926613     0.01418784
     5     -109.1067365126     0.00688298
     6     -109.1067474466     0.00335354
     7     -109.1067494135     0.00157540
     8     -109.1067501527     0.00092450
     9     -109.1067503563     0.00047249
    10     -109.1067503984     0.00020402
    11     -109.1067504062     0.00007683
    12     -109.1067504075     0.00002619
    13     -109.1067504076     0.00001072
    14     -109.1067504076     0.00000467
    15     -109.1067504076     0.00000210
    16     -109.1067504076     0.00000093

 CONVERGED STATE    1 ENERGY=     -109.1067504076 IN   16 ITERS

 ALL STATES CONVERGED.

 CI EIGENVECTORS WILL BE LABELED IN GROUP=C2V     
 PRINTING CI COEFFICIENTS LARGER THAN  0.050000

 STATE   1  ENERGY=      -109.1067504076  S=  0.00  SZ=  0.00  SPACE SYM=A1  

      ALPHA       |      BETA        | COEFFICIENT
------------------|------------------|------------
 1111100000000000 | 1111100000000000 |   0.9331569
 1110110000000000 | 1110110000000000 |  -0.1301463
 1111001000000000 | 1111001000000000 |  -0.1301463
 1111001000000000 | 1110110000000000 |  -0.0803133
 1110110000000000 | 1111001000000000 |  -0.0803133
 1011101000000000 | 1011101000000000 |  -0.0518234
 1011110000000000 | 1011110000000000 |  -0.0518234
 ..... DONE WITH DETERMINANT CI COMPUTATION .....
 CPU     0: STEP CPU TIME=    50.50 TOTAL CPU TIME=       50.6 (    0.8 MIN)
 TOTAL WALL CLOCK TIME=       65.0 SECONDS, CPU UTILIZATION IS  77.77%

     ---------------------------
     ONE PARTICLE DENSITY MATRIX
     ---------------------------

 DENSITY MATRIX WILL BE SAVED FOR   1-TH STATE WITH S= 0.00

 CI EIGENSTATE   1 TOTAL ENERGY =     -109.1067504076

          NATURAL ORBITALS IN ATOMIC ORBITAL BASIS
          ----------------------------------------

                      1          2          3          4          5
                    2.0000     2.0000     1.9852     1.9705     1.9659
                     A1         A1         A1         A1         A1  
    1  N  1  S    0.706599  -0.706848  -0.174569  -0.162344  -0.007031
    2  N  1  S    0.001093  -0.000443   0.373988   0.379206   0.054253
    3  N  1  S    0.000786  -0.002372   0.300765   0.449209  -0.218897
    4  N  1  X    0.000000   0.000000   0.000000   0.000000   0.000000
    5  N  1  Y    0.000000   0.000000   0.000000   0.000000   0.000000
    6  N  1  Z    0.001800  -0.001568   0.022787  -0.191840   0.572657
    7  N  1  X    0.000000   0.000000   0.000000   0.000000   0.000000
    8  N  1  Y    0.000000   0.000000   0.000000   0.000000   0.000000
    9  N  1  Z   -0.000853  -0.000317  -0.057724  -0.043411   0.107438
   10  N  2  S    0.706599   0.706848  -0.174569   0.162344  -0.007031
   11  N  2  S    0.001093   0.000443   0.373988  -0.379206   0.054253
   12  N  2  S    0.000786   0.002372   0.300765  -0.449209  -0.218897
   13  N  2  X    0.000000   0.000000   0.000000   0.000000   0.000000
   14  N  2  Y    0.000000   0.000000   0.000000   0.000000   0.000000
   15  N  2  Z   -0.001800  -0.001568  -0.022787  -0.191840  -0.572657
   16  N  2  X    0.000000   0.000000   0.000000   0.000000   0.000000
   17  N  2  Y    0.000000   0.000000   0.000000   0.000000   0.000000
   18  N  2  Z    0.000853  -0.000317   0.057724  -0.043411  -0.107438

                      6          7          8          9         10
                    1.9032     1.9032     0.0989     0.0989     0.0307
                     B1         B2         B2         B1         A1  
    1  N  1  S    0.000000   0.000000   0.000000   0.000000  -0.093776
    2  N  1  S    0.000000   0.000000   0.000000   0.000000   0.407008
    3  N  1  S    0.000000   0.000000   0.000000   0.000000   0.476455
    4  N  1  X    0.515739   0.000000   0.000000   0.731545   0.000000
    5  N  1  Y    0.000000   0.515739   0.731545   0.000000   0.000000
    6  N  1  Z    0.000000   0.000000   0.000000   0.000000   0.965748
    7  N  1  X    0.174857   0.000000   0.000000   0.108088   0.000000
    8  N  1  Y    0.000000   0.174857   0.108088   0.000000   0.000000
    9  N  1  Z    0.000000   0.000000   0.000000   0.000000   0.095709
   10  N  2  S    0.000000   0.000000   0.000000   0.000000   0.093776
   11  N  2  S    0.000000   0.000000   0.000000   0.000000  -0.407008
   12  N  2  S    0.000000   0.000000   0.000000   0.000000  -0.476455
   13  N  2  X    0.515739   0.000000   0.000000  -0.731545   0.000000
   14  N  2  Y    0.000000   0.515739  -0.731545   0.000000   0.000000
   15  N  2  Z    0.000000   0.000000   0.000000   0.000000   0.965748
   16  N  2  X    0.174857   0.000000   0.000000  -0.108088   0.000000
   17  N  2  Y    0.000000   0.174857  -0.108088   0.000000   0.000000
   18  N  2  Z    0.000000   0.000000   0.000000   0.000000   0.095709

                     11         12         13         14         15
                    0.0129     0.0097     0.0071     0.0071     0.0036
                     A1         A1         B2         B1         A1  
    1  N  1  S   -0.078997  -0.084298   0.000000   0.000000   0.021088
    2  N  1  S    0.995912   0.927009   0.000000   0.000000  -0.584240
    3  N  1  S   -0.967134  -0.993196   0.000000   0.000000   0.203740
    4  N  1  X    0.000000   0.000000   0.000000  -0.622023   0.000000
    5  N  1  Y    0.000000   0.000000  -0.622023   0.000000   0.000000
    6  N  1  Z   -0.320090  -0.326362   0.000000   0.000000  -0.364102
    7  N  1  X    0.000000   0.000000   0.000000   0.650625   0.000000
    8  N  1  Y    0.000000   0.000000   0.650625   0.000000   0.000000
    9  N  1  Z    0.457479   0.364369   0.000000   0.000000   0.948183
   10  N  2  S   -0.078997   0.084298   0.000000   0.000000   0.021088
   11  N  2  S    0.995912  -0.927009   0.000000   0.000000  -0.584240
   12  N  2  S   -0.967134   0.993196   0.000000   0.000000   0.203740
   13  N  2  X    0.000000   0.000000   0.000000  -0.622023   0.000000
   14  N  2  Y    0.000000   0.000000  -0.622023   0.000000   0.000000
   15  N  2  Z    0.320090  -0.326362   0.000000   0.000000   0.364102
   16  N  2  X    0.000000   0.000000   0.000000   0.650625   0.000000
   17  N  2  Y    0.000000   0.000000   0.650625   0.000000   0.000000
   18  N  2  Z   -0.457479   0.364369   0.000000   0.000000  -0.948183

                     16         17         18
                    0.0014     0.0014     0.0006
                     B1         B2         A1  
    1  N  1  S    0.000000   0.000000  -0.012652
    2  N  1  S    0.000000   0.000000  -1.164774
    3  N  1  S    0.000000   0.000000   4.988010
    4  N  1  X    0.474076   0.000000   0.000000
    5  N  1  Y    0.000000   0.474076   0.000000
    6  N  1  Z    0.000000   0.000000   0.009628
    7  N  1  X   -1.361583   0.000000   0.000000
    8  N  1  Y    0.000000  -1.361583   0.000000
    9  N  1  Z    0.000000   0.000000   2.439300
   10  N  2  S    0.000000   0.000000   0.012652
   11  N  2  S    0.000000   0.000000   1.164774
   12  N  2  S    0.000000   0.000000  -4.988010
   13  N  2  X   -0.474076   0.000000   0.000000
   14  N  2  Y    0.000000  -0.474076   0.000000
   15  N  2  Z    0.000000   0.000000   0.009628
   16  N  2  X    1.361583   0.000000   0.000000
   17  N  2  Y    0.000000   1.361583   0.000000
   18  N  2  Z    0.000000   0.000000   2.439300
 ..... DONE WITH ONE PARTICLE DENSITY MATRIX .....
 CPU     0: STEP CPU TIME=     0.94 TOTAL CPU TIME=       51.5 (    0.9 MIN)
 TOTAL WALL CLOCK TIME=       65.9 SECONDS, CPU UTILIZATION IS  78.07%

     --------------------------------------------------------
     ALDET CI PROPERTIES...FOR THE WAVEFUNCTION OF STATE    1
               USING THE EXPECTATION VALUE DENSITY
     --------------------------------------------------------

          -----------------
          ENERGY COMPONENTS
          -----------------

         WAVEFUNCTION NORMALIZATION =       1.0000000000

                ONE ELECTRON ENERGY =    -189.9755102205
                TWO ELECTRON ENERGY =      59.2606888023
           NUCLEAR REPULSION ENERGY =      21.6080710106
                                      ------------------
                       TOTAL ENERGY =    -109.1067504076

 ELECTRON-ELECTRON POTENTIAL ENERGY =      59.2606888023
  NUCLEUS-ELECTRON POTENTIAL ENERGY =    -298.6856389630
   NUCLEUS-NUCLEUS POTENTIAL ENERGY =      21.6080710106
                                      ------------------
             TOTAL POTENTIAL ENERGY =    -217.8168791501
               TOTAL KINETIC ENERGY =     108.7101287425
                 VIRIAL RATIO (V/T) =       2.0036484334

          ---------------------------------------
          MULLIKEN AND LOWDIN POPULATION ANALYSES
          ---------------------------------------

               ----- POPULATIONS IN EACH AO -----
                             MULLIKEN      LOWDIN
              1  N  1  S      1.99986     1.99460
              2  N  1  S      0.95393     0.87125
              3  N  1  S      0.89632     0.75081
              4  N  1  X      0.76657     0.69582
              5  N  1  Y      0.76657     0.69582
              6  N  1  Z      1.05046     1.01596
              7  N  1  X      0.23867     0.30942
              8  N  1  Y      0.23867     0.30942
              9  N  1  Z      0.08894     0.35690
             10  N  2  S      1.99986     1.99460
             11  N  2  S      0.95393     0.87125
             12  N  2  S      0.89632     0.75081
             13  N  2  X      0.76657     0.69582
             14  N  2  Y      0.76657     0.69582
             15  N  2  Z      1.05046     1.01596
             16  N  2  X      0.23867     0.30942
             17  N  2  Y      0.23867     0.30942
             18  N  2  Z      0.08894     0.35690

          ----- MULLIKEN ATOMIC OVERLAP POPULATIONS -----
          (OFF-DIAGONAL ELEMENTS NEED TO BE MULTIPLIED BY 2)

             1           2

    1    6.5779594
    2    0.4220406   6.5779594

          TOTAL MULLIKEN AND LOWDIN ATOMIC POPULATIONS
       ATOM         MULL.POP.    CHARGE          LOW.POP.     CHARGE
    1 N             7.000000    0.000000         7.000000    0.000000
    2 N             7.000000    0.000000         7.000000    0.000000

          ---------------------
          ELECTROSTATIC MOMENTS
          ---------------------

 POINT   1           X           Y           Z (BOHR)    CHARGE
                 0.000000    0.000000    1.133836        0.00 (A.U.)
         DX          DY          DZ         /D/  (DEBYE)
     0.000000    0.000000    0.000000    0.000000
 ...... END OF PROPERTY EVALUATION ......
 CPU     0: STEP CPU TIME=     0.01 TOTAL CPU TIME=       51.5 (    0.9 MIN)
 TOTAL WALL CLOCK TIME=       66.4 SECONDS, CPU UTILIZATION IS  77.54%
             119866892  WORDS OF DYNAMIC MEMORY USED
 EXECUTION OF GAMESS TERMINATED NORMALLY Thu Jan 17 17:44:20 2019
 DDI: 305760 bytes (0.3 MB / 0 MWords) used by master data server.

 ----------------------------------------
 CPU timing information for all processes
 ========================================
 0: 48.04 + 3.672 = 51.676
 1: 46.976 + 4.332 = 51.308
 2: 48.604 + 3.748 = 52.352
 3: 48.540 + 4.16 = 52.556
 4: 47.340 + 4.828 = 52.168
 5: 48.520 + 3.560 = 52.80
 6: 47.856 + 3.584 = 51.440
 7: 48.304 + 3.676 = 51.980
 8: 47.392 + 3.752 = 51.144
 9: 47.440 + 4.16 = 51.456
 10: 48.732 + 3.724 = 52.456
 11: 47.452 + 3.748 = 51.200
 12: 0.160 + 1.760 = 1.920
 13: 0.08 + 0.00 = 0.08
 14: 0.04 + 0.04 = 0.08
 15: 0.04 + 0.04 = 0.08
 16: 0.00 + 0.08 = 0.08
 17: 0.08 + 0.00 = 0.08
 18: 0.00 + 0.04 = 0.04
 19: 0.08 + 0.00 = 0.08
 20: 0.04 + 0.00 = 0.04
 21: 0.00 + 0.08 = 0.08
 22: 0.00 + 0.04 = 0.04
 23: 0.04 + 0.00 = 0.04
 ----------------------------------------
 ddikick.x: exited gracefully.
unset echo
----- accounting info -----
Files used on the master node localhost were:
-rw-rw-r-- 1 maho maho    13429 Jan 17 17:44 ./N2.SV/1.2/N2.SV.fullCI.1.2.gamess.dat
-rw------- 1 maho maho     1813 Jan 17 17:43 ./N2.SV/1.2/N2.SV.fullCI.1.2.gamess.F05
-rw-rw-r-- 1 maho maho   180016 Jan 17 17:43 ./N2.SV/1.2/N2.SV.fullCI.1.2.gamess.F08
-rw-rw-r-- 1 maho maho     1376 Jan 17 17:43 ./N2.SV/1.2/N2.SV.fullCI.1.2.gamess.F09
-rw-rw-r-- 1 maho maho  1865040 Jan 17 17:44 ./N2.SV/1.2/N2.SV.fullCI.1.2.gamess.F10
-rw-rw-r-- 1 maho maho 38216480 Jan 17 17:44 ./N2.SV/1.2/N2.SV.fullCI.1.2.gamess.F12
-rw------- 1 maho maho     1813 Jan 17 17:43 ./N2.SV/1.2/N2.SV.fullCI.1.2.gamess.inp
-rw-rw-r-- 1 maho maho    45971 Jan 17 17:44 ./N2.SV/1.2/N2.SV.fullCI.1.2.gamess.log
ls: No match.
ls: No match.
ls: No match.
Thu Jan 17 17:44:23 JST 2019
0.0u 0.0s 1:09.88 0.1% 0+0k 0+8io 0pf+0w
