----- GAMESS execution script 'rungms' -----
This job is running on host bach.ad64.riken.go.jp
under operating system Darwin at 2019年 1月17日 木曜日 17時51分54秒 JST
Available scratch disk space (Kbyte units) at beginning of the job is
Filesystem   1024-blocks       Used Available Capacity iused      ifree %iused  Mounted on
/dev/disk2s2  1953178672 1144754104 808424568    59%  984495 4293982784    0%   /Volumes/Users
GAMESS temporary binary files will be written to ./
GAMESS supplementary output files will be written to ./
Copying input file LiH.631g/4.2/LiH.631g.Hartree-Fock.4.2.gamess.inp to your run's scratch directory...
cp LiH.631g/4.2/LiH.631g.Hartree-Fock.4.2.gamess.inp .//LiH.631g/4.2/LiH.631g.Hartree-Fock.4.2.gamess.F05
unset echo
/Volumes/Users/maho/bin/gamess//ddikick.x /Volumes/Users/maho/bin/gamess//gamess.00.x LiH.631g/4.2/LiH.631g.Hartree-Fock.4.2.gamess -ddi 1 1 bach.ad64.riken.go.jp -scr ./

 Distributed Data Interface kickoff program.
 Initiating 1 compute processes on 1 nodes to run the following command:
 /Volumes/Users/maho/bin/gamess//gamess.00.x LiH.631g/4.2/LiH.631g.Hartree-Fock.4.2.gamess 

          ******************************************************
          *         GAMESS VERSION = 18 AUG 2016 (R1)          *
          *             FROM IOWA STATE UNIVERSITY             *
          * M.W.SCHMIDT, K.K.BALDRIDGE, J.A.BOATZ, S.T.ELBERT, *
          *   M.S.GORDON, J.H.JENSEN, S.KOSEKI, N.MATSUNAGA,   *
          *          K.A.NGUYEN, S.J.SU, T.L.WINDUS,           *
          *       TOGETHER WITH M.DUPUIS, J.A.MONTGOMERY       *
          *         J.COMPUT.CHEM.  14, 1347-1363(1993)        *
          **************** 64 BIT APPLE VERSION ****************

  SINCE 1993, STUDENTS AND POSTDOCS WORKING AT IOWA STATE UNIVERSITY
  AND ALSO IN THEIR VARIOUS JOBS AFTER LEAVING ISU HAVE MADE IMPORTANT
  CONTRIBUTIONS TO THE CODE:
     IVANA ADAMOVIC, CHRISTINE AIKENS, YURI ALEXEEV, POOJA ARORA,
     ANDREY ASADCHEV, ROB BELL, PRADIPTA BANDYOPADHYAY, JONATHAN BENTZ,
     BRETT BODE, KURT BRORSEN, CALEB CARLIN, GALINA CHABAN, WEI CHEN,
     CHEOL HO CHOI, PAUL DAY, ALBERT DEFUSCO, NUWAN DESILVA, TIM DUDLEY,
     DMITRI FEDOROV, GRAHAM FLETCHER, MARK FREITAG, KURT GLAESEMANN,
     DAN KEMP, GRANT MERRILL, NORIYUKI MINEZAWA, JONATHAN MULLIN,
     TAKESHI NAGATA, SEAN NEDD, HEATHER NETZLOFF, BOSILJKA NJEGIC, RYAN OLSON,
     MIKE PAK, SPENCER PRUITT, LUKE ROSKOP, JIM SHOEMAKER, LYUDMILA SLIPCHENKO,
     TONY SMITH, SAROM SOK LEANG, JIE SONG, TETSUYA TAKETSUGU, SIMON WEBB,
     PENG XU, SOOHAENG YOO, FEDERICO ZAHARIEV

  ADDITIONAL CODE HAS BEEN PROVIDED BY COLLABORATORS IN OTHER GROUPS:
     IOWA STATE UNIVERSITY:
          JOE IVANIC, AARON WEST, LAIMUTIS BYTAUTAS, KLAUS RUEDENBERG
     UNIVERSITY OF TOKYO: KIMIHIKO HIRAO, TAKAHITO NAKAJIMA,
          TAKAO TSUNEDA, MUNEAKI KAMIYA, SUSUMU YANAGISAWA,
          KIYOSHI YAGI, MAHITO CHIBA, SEIKEN TOKURA, NAOAKI KAWAKAMI
     UNIVERSITY OF AARHUS: FRANK JENSEN
     UNIVERSITY OF IOWA: VISVALDAS KAIRYS, HUI LI
     NATIONAL INST. OF STANDARDS AND TECHNOLOGY: WALT STEVENS, DAVID GARMER
     UNIVERSITY OF PISA: BENEDETTA MENNUCCI, JACOPO TOMASI
     UNIVERSITY OF MEMPHIS: HENRY KURTZ, PRAKASHAN KORAMBATH
     UNIVERSITY OF ALBERTA: TOBY ZENG, MARIUSZ KLOBUKOWSKI
     UNIVERSITY OF NEW ENGLAND: MARK SPACKMAN
     MIE UNIVERSITY: HIROAKI UMEDA
     NAT. INST. OF ADVANCED INDUSTRIAL SCIENCE AND TECHNOLOGY: KAZUO KITAURA
     MICHIGAN STATE UNIVERSITY:
          KAROL KOWALSKI, MARTA WLOCH, JEFFREY GOUR, JESSE LUTZ,
          WEI LI, PIOTR PIECUCH
     UNIVERSITY OF SILESIA: MONIKA MUSIAL, STANISLAW KUCHARSKI
     FACULTES UNIVERSITAIRES NOTRE-DAME DE LA PAIX:
          OLIVIER QUINET, BENOIT CHAMPAGNE
     UNIVERSITY OF CALIFORNIA - SANTA BARBARA: BERNARD KIRTMAN
     INSTITUTE FOR MOLECULAR SCIENCE:
          KAZUYA ISHIMURA, MICHIO KATOUDA, AND SHIGERU NAGASE
     UNIVERSITY OF NOTRE DAME: ANNA POMOGAEVA, DAN CHIPMAN
     KYUSHU UNIVERSITY:
          HARUYUKI NAKANO,
          FENG LONG GU, JACEK KORCHOWIEC, MARCIN MAKOWSKI, AND YURIKO AOKI,
          HIROTOSHI MORI AND EISAKU MIYOSHI
     PENNSYLVANIA STATE UNIVERSITY:
          TZVETELIN IORDANOV, CHET SWALINA, JONATHAN SKONE,
          SHARON HAMMES-SCHIFFER
     WASEDA UNIVERSITY:
          MASATO KOBAYASHI, TOMOKO AKAMA, TSUGUKI TOUMA,
          TAKESHI YOSHIKAWA, YASUHIRO IKABATA, JUNJI SEINO,
          YUYA NAKAJIMA, HIROMI NAKAI
     NANJING UNIVERSITY: SHUHUA LI
     UNIVERSITY OF NEBRASKA:
          PEIFENG SU, DEJUN SI, NANDUN THELLAMUREGE, YALI WANG, HUI LI
     UNIVERSITY OF ZURICH: ROBERTO PEVERATI, KIM BALDRIDGE
     N. COPERNICUS UNIVERSITY AND JACKSON STATE UNIVERSITY:
          MARIA BARYSZ
     UNIVERSITY OF COPENHAGEN: Jimmy Kromann, CASPER STEINMANN
     TOKYO INSTITUTE OF TECHNOLOGY: HIROYA NAKATA
     NAGOYA UNIVERSITY: YOSHIO NISHIMOTO, STEPHAN IRLE
     MOSCOW STATE UNIVERSITY: VLADIMIR MIRONOV

 EXECUTION OF GAMESS BEGUN Thu Jan 17 17:51:55 2019

            ECHO OF THE FIRST FEW INPUT CARDS -
 INPUT CARD> $CONTRL MULT=1 SCFTYP=RHF $END                                                 
 INPUT CARD> $BASIS GBASIS=N31 NGAUSS=6 NDFUNC=1 NPFUNC=1 $END                              
 INPUT CARD> $GUESS GUESS=HUCKEL $END                                                       
 INPUT CARD> $DATA                                                                          
 INPUT CARD>LiH...HF...6-31G* basis                                                         
 INPUT CARD>Cnv   2                                                                         
 INPUT CARD>                                                                                
 INPUT CARD>Li    3.0    0.0      0.0     0.0                                               
 INPUT CARD>H     1.0    0.0      0.0     4.2                                               
 INPUT CARD> $END                                                                           
    1000000 WORDS OF MEMORY AVAILABLE

     BASIS OPTIONS
     -------------
     GBASIS=N31          IGAUSS=       6      POLAR=POPN31  
     NDFUNC=       1     NFFUNC=       0     DIFFSP=       F
     NPFUNC=       1      DIFFS=       F     BASNAM=        


     RUN TITLE
     ---------
 LiH...HF...6-31G* basis                                                         

 THE POINT GROUP OF THE MOLECULE IS CNV     
 THE ORDER OF THE PRINCIPAL AXIS IS     2

 ATOM      ATOMIC                      COORDINATES (BOHR)
           CHARGE         X                   Y                   Z
 LI          3.0     0.0000000000        0.0000000000        0.0000000000
 H           1.0     0.0000000000        0.0000000000        7.9368491484

          INTERNUCLEAR DISTANCES (ANGS.)
          ------------------------------

                1 LI         2 H     

   1 LI      0.0000000    4.2000000  
   2 H       4.2000000    0.0000000  

  * ... LESS THAN  3.000


     ATOMIC BASIS SET
     ----------------
 THE CONTRACTED PRIMITIVE FUNCTIONS HAVE BEEN UNNORMALIZED
 THE CONTRACTED BASIS FUNCTIONS ARE NOW NORMALIZED TO UNITY

  SHELL TYPE  PRIMITIVE        EXPONENT          CONTRACTION COEFFICIENT(S)

 LI        

      1   S       1           642.4189150    0.002142607810
      1   S       2            96.7985153    0.016208871501
      1   S       3            22.0911212    0.077315572504
      1   S       4             6.2010702    0.245786052013
      1   S       5             1.9351177    0.470189004025
      1   S       6             0.6367358    0.345470845019

      2   L       7             2.3249184   -0.035091745735    0.008941508043
      2   L       8             0.6324304   -0.191232843103    0.141009464046
      2   L       9             0.0790534    1.083987794916    0.945363695309

      3   L      10             0.0359620    1.000000000000    1.000000000000

      4   D      11             0.2000000    1.000000000000

 H         

      5   S      12            18.7311370    0.033494604338
      5   S      13             2.8253944    0.234726953484
      5   S      14             0.6401217    0.813757326146

      6   S      15             0.1612778    1.000000000000

      7   P      16             1.1000000    1.000000000000

 TOTAL NUMBER OF BASIS SET SHELLS             =    7
 NUMBER OF CARTESIAN GAUSSIAN BASIS FUNCTIONS =   20
 NUMBER OF ELECTRONS                          =    4
 CHARGE OF MOLECULE                           =    0
 SPIN MULTIPLICITY                            =    1
 NUMBER OF OCCUPIED ORBITALS (ALPHA)          =    2
 NUMBER OF OCCUPIED ORBITALS (BETA )          =    2
 TOTAL NUMBER OF ATOMS                        =    2
 THE NUCLEAR REPULSION ENERGY IS        0.3779837495

 THIS MOLECULE IS RECOGNIZED AS BEING LINEAR,
 ORBITAL LZ DEGENERACY TOLERANCE ETOLLZ= 1.00E-06

     $CONTRL OPTIONS
     ---------------
 SCFTYP=RHF          RUNTYP=ENERGY       EXETYP=RUN     
 MPLEVL=       0     CITYP =NONE         CCTYP =NONE         VBTYP =NONE    
 DFTTYP=NONE         TDDFT =NONE    
 MULT  =       1     ICHARG=       0     NZVAR =       0     COORD =UNIQUE  
 PP    =NONE         RELWFN=NONE         LOCAL =NONE         NUMGRD=       F
 ISPHER=      -1     NOSYM =       0     MAXIT =      30     UNITS =ANGS    
 PLTORB=       F     MOLPLT=       F     AIMPAC=       F     FRIEND=        
 NPRINT=       7     IREST =       0     GEOM  =INPUT   
 NORMF =       0     NORMP =       0     ITOL  =      20     ICUT  =       9
 INTTYP=BEST         GRDTYP=BEST         QMTTOL= 1.0E-06

     $SYSTEM OPTIONS
     ---------------
  REPLICATED MEMORY=     1000000 WORDS (ON EVERY NODE).
 DISTRIBUTED MEMDDI=           0 MILLION WORDS IN AGGREGATE,
 MEMDDI DISTRIBUTED OVER   1 PROCESSORS IS           0 WORDS/PROCESSOR.
 TOTAL MEMORY REQUESTED ON EACH PROCESSOR=     1000000 WORDS.
 TIMLIM=      525600.00 MINUTES, OR     365.0 DAYS.
 PARALL= F  BALTYP=  DLB     KDIAG=    0  COREFL= F
 MXSEQ2=     300 MXSEQ3=     150  mem10=         0

          ----------------
          PROPERTIES INPUT
          ----------------

     MOMENTS            FIELD           POTENTIAL          DENSITY
 IEMOM =       1   IEFLD =       0   IEPOT =       0   IEDEN =       0
 WHERE =COMASS     WHERE =NUCLEI     WHERE =NUCLEI     WHERE =NUCLEI  
 OUTPUT=BOTH       OUTPUT=BOTH       OUTPUT=BOTH       OUTPUT=BOTH    
 IEMINT=       0   IEFINT=       0                     IEDINT=       0
                                                       MORB  =       0
          EXTRAPOLATION IN EFFECT
          SOSCF IN EFFECT
 ORBITAL PRINTING OPTION: NPREO=     1    20     2     1

     -------------------------------
     INTEGRAL TRANSFORMATION OPTIONS
     -------------------------------
     NWORD  =            0
     CUTOFF = 1.0E-09     MPTRAN =       0
     DIRTRF =       F     AOINTS =DUP     

          ----------------------
          INTEGRAL INPUT OPTIONS
          ----------------------
 NOPK  =       1 NORDER=       0 SCHWRZ=       F

     ------------------------------------------
     THE POINT GROUP IS CNV, NAXIS= 2, ORDER= 4
     ------------------------------------------

     DIMENSIONS OF THE SYMMETRY SUBSPACES ARE
 A1  =   11     A2  =    1     B1  =    4     B2  =    4

 ..... DONE SETTING UP THE RUN .....
 STEP CPU TIME =     0.00 TOTAL CPU TIME =        0.0 (    0.0 MIN)
 TOTAL WALL CLOCK TIME=        0.0 SECONDS, CPU UTILIZATION IS   0.00%

          ********************
          1 ELECTRON INTEGRALS
          ********************
 ...... END OF ONE-ELECTRON INTEGRALS ......
 STEP CPU TIME =     0.00 TOTAL CPU TIME =        0.0 (    0.0 MIN)
 TOTAL WALL CLOCK TIME=        0.0 SECONDS, CPU UTILIZATION IS   0.00%

          -------------
          GUESS OPTIONS
          -------------
          GUESS =HUCKEL            NORB  =       0          NORDER=       0
          MIX   =       F          PRTMO =       F          PUNMO =       F
          TOLZ  = 1.0E-08          TOLE  = 1.0E-05
          SYMDEN=       F          PURIFY=       F

 INITIAL GUESS ORBITALS GENERATED BY HUCKEL   ROUTINE.
 HUCKEL GUESS REQUIRES      4469 WORDS.

 SYMMETRIES FOR INITIAL GUESS ORBITALS FOLLOW.   BOTH SET(S).
     2 ORBITALS ARE OCCUPIED (    1 CORE ORBITALS).
     2=A1       3=A1       4=A1       5=A1       6=A1       7=A1       8=A1  
     9=A1      10=A1      11=A1      12=A2  
 ...... END OF INITIAL ORBITAL SELECTION ......
 STEP CPU TIME =     0.00 TOTAL CPU TIME =        0.0 (    0.0 MIN)
 TOTAL WALL CLOCK TIME=        0.0 SECONDS, CPU UTILIZATION IS   0.00%

                    ----------------------
                    AO INTEGRAL TECHNOLOGY
                    ----------------------
     S,P,L SHELL ROTATED AXIS INTEGRALS, REPROGRAMMED BY
        KAZUYA ISHIMURA (IMS) AND JOSE SIERRA (SYNSTAR).
     S,P,D,L SHELL ROTATED AXIS INTEGRALS PROGRAMMED BY
        KAZUYA ISHIMURA (INSTITUTE FOR MOLECULAR SCIENCE).
     S,P,D,F,G SHELL TO TOTAL QUARTET ANGULAR MOMENTUM SUM 5,
        ERIC PROGRAM BY GRAHAM FLETCHER (ELORET AND NASA ADVANCED
        SUPERCOMPUTING DIVISION, AMES RESEARCH CENTER).
     S,P,D,F,G,L SHELL GENERAL RYS QUADRATURE PROGRAMMED BY
        MICHEL DUPUIS (PACIFIC NORTHWEST NATIONAL LABORATORY).

          --------------------
          2 ELECTRON INTEGRALS
          --------------------

 THE -PK- OPTION IS OFF, THE INTEGRALS ARE NOT IN SUPERMATRIX FORM.
 STORING   15000 INTEGRALS/RECORD ON DISK, USING 12 BYTES/INTEGRAL.
 TWO ELECTRON INTEGRAL EVALUATION REQUIRES   90424 WORDS OF MEMORY.
 II,JST,KST,LST =  1  1  1  1 NREC =         1 INTLOC =    1
 II,JST,KST,LST =  2  1  1  1 NREC =         1 INTLOC =    2
 II,JST,KST,LST =  3  1  1  1 NREC =         1 INTLOC =   34
 II,JST,KST,LST =  4  1  1  1 NREC =         1 INTLOC =  214
 II,JST,KST,LST =  5  1  1  1 NREC =         1 INTLOC = 1189
 II,JST,KST,LST =  6  1  1  1 NREC =         1 INTLOC = 1804
 II,JST,KST,LST =  7  1  1  1 NREC =         1 INTLOC = 2637
 TOTAL NUMBER OF NONZERO TWO-ELECTRON INTEGRALS =                5231
          1 INTEGRAL RECORDS WERE STORED ON DISK FILE  8.
  ...... END OF TWO-ELECTRON INTEGRALS .....
 STEP CPU TIME =     0.02 TOTAL CPU TIME =        0.0 (    0.0 MIN)
 TOTAL WALL CLOCK TIME=        0.0 SECONDS, CPU UTILIZATION IS  66.67%

          --------------------------
                 RHF SCF CALCULATION
          --------------------------

     NUCLEAR ENERGY =         0.3779837495
     MAXIT =   30     NPUNCH=    2
     EXTRAP=T  DAMP=F  SHIFT=F  RSTRCT=F  DIIS=F  DEM=F  SOSCF=T
     DENSITY MATRIX CONV=  1.00E-05
     SOSCF WILL OPTIMIZE      36 ORBITAL ROTATIONS, SOGTOL=   0.250
     MEMORY REQUIRED FOR RHF ITERS=     33224 WORDS.

 ITER EX DEM     TOTAL ENERGY        E CHANGE  DENSITY CHANGE     ORB. GRAD
   1  0  0       -7.5115703498    -7.5115703498   1.118835370   0.000000000
          ---------------START SECOND ORDER SCF---------------
 SOSCF IS SCALING ROTATION ANGLE MATRIX, SQCDF=    0.135588
   2  1  0       -7.4622692865     0.0493010633   0.555035137   0.071842299
 SOSCF IS SCALING ROTATION ANGLE MATRIX, SQCDF=    1.319834
   3  2  0       -7.6497709278    -0.1875016413   1.321376501   0.110910149
   4  3  0       -7.7312984575    -0.0815275297   0.354501143   0.093813938
   5  4  0       -7.7889881613    -0.0576897038   0.335354019   0.083546289
   6  5  0       -7.8385656068    -0.0495774455   0.219750679   0.022434308
   7  6  0       -7.8489018319    -0.0103362251   0.073999189   0.005179325
   8  7  0       -7.8497643508    -0.0008625188   0.014930759   0.003903745
   9  8  0       -7.8498976757    -0.0001333249   0.003005036   0.000714798
  10  9  0       -7.8499050900    -0.0000074143   0.000885551   0.000257475
  11 10  0       -7.8499053345    -0.0000002446   0.000126173   0.000049775
  12 11  0       -7.8499053401    -0.0000000056   0.000016984   0.000005365
  13 12  0       -7.8499053403    -0.0000000001   0.000000926   0.000000325
  14 13  0       -7.8499053403    -0.0000000000   0.000000083   0.000000040

          -----------------
          DENSITY CONVERGED
          -----------------
     TIME TO FORM FOCK OPERATORS=       0.0 SECONDS (       0.0 SEC/ITER)
     TIME TO SOLVE SCF EQUATIONS=       0.0 SECONDS (       0.0 SEC/ITER)

 FINAL RHF ENERGY IS       -7.8499053403 AFTER  14 ITERATIONS

 LZ VALUE ANALYSIS FOR THE MOS
 ----------------------------------------
 MO     1 (    1) HAS LZ(WEIGHT)= 0.00(100.0%) 
 MO     2 (    2) HAS LZ(WEIGHT)= 0.00(100.0%) 
 MO     3 (    3) HAS LZ(WEIGHT)= 0.00(100.0%) 
 MO     4 (    4) HAS LZ(WEIGHT)=-1.00( 50.0%)  1.00( 50.0%) 
 MO     5 (    4) HAS LZ(WEIGHT)=-1.00( 50.0%)  1.00( 50.0%) 
 MO     6 (    5) HAS LZ(WEIGHT)= 0.00(100.0%) 
 MO     7 (    6) HAS LZ(WEIGHT)= 0.00(100.0%) 
 MO     8 (    7) HAS LZ(WEIGHT)=-1.00( 50.0%)  1.00( 50.0%) 
 MO     9 (    7) HAS LZ(WEIGHT)=-1.00( 50.0%)  1.00( 50.0%) 
 MO    10 (    8) HAS LZ(WEIGHT)= 0.00(100.0%) 
 MO    11 (    9) HAS LZ(WEIGHT)=-2.00( 50.0%)  2.00( 50.0%) 
 MO    12 (    9) HAS LZ(WEIGHT)=-2.00( 50.0%)  2.00( 50.0%) 
 MO    13 (   10) HAS LZ(WEIGHT)=-1.00( 50.0%)  1.00( 50.0%) 
 MO    14 (   10) HAS LZ(WEIGHT)=-1.00( 50.0%)  1.00( 50.0%) 
 MO    15 (   11) HAS LZ(WEIGHT)= 0.00(100.0%) 
 MO    16 (   12) HAS LZ(WEIGHT)= 0.00(100.0%) 
 MO    17 (   13) HAS LZ(WEIGHT)= 0.00(100.0%) 
 MO    18 (   14) HAS LZ(WEIGHT)=-1.00( 50.0%)  1.00( 50.0%) 
 MO    19 (   14) HAS LZ(WEIGHT)=-1.00( 50.0%)  1.00( 50.0%) 
 MO    20 (   15) HAS LZ(WEIGHT)= 0.00(100.0%) 

          ------------
          EIGENVECTORS
          ------------

                      1          2          3          4          5
                   -2.5823    -0.1907    -0.0455     0.0238     0.0238
                     A1         A1         A1         B1         B2  
    1  LI 1  S    0.998762  -0.091260  -0.161410  -0.000000  -0.000000
    2  LI 1  S   -0.012319  -0.067178   0.072772  -0.000000  -0.000000
    3  LI 1  X    0.000000  -0.000000  -0.000000   0.232396  -0.000000
    4  LI 1  Y    0.000000  -0.000000  -0.000000  -0.000000   0.232396
    5  LI 1  Z   -0.002829  -0.006284  -0.100434  -0.000000  -0.000000
    6  LI 1  S    0.001964   0.475822   0.720809  -0.000000  -0.000000
    7  LI 1  X    0.000000  -0.000000  -0.000000   0.803552  -0.000000
    8  LI 1  Y    0.000000  -0.000000  -0.000000  -0.000000   0.803552
    9  LI 1  Z    0.001930   0.216355  -0.323950  -0.000000  -0.000000
   10  LI 1 XX    0.008805   0.026563   0.037387  -0.000000  -0.000000
   11  LI 1 YY    0.008805   0.026563   0.037387  -0.000000  -0.000000
   12  LI 1 ZZ    0.008664   0.042664   0.034737  -0.000000  -0.000000
   13  LI 1 XY    0.000000  -0.000000  -0.000000  -0.000000  -0.000000
   14  LI 1 XZ    0.000000  -0.000000  -0.000000  -0.026870  -0.000000
   15  LI 1 YZ    0.000000  -0.000000  -0.000000  -0.000000  -0.026870
   16  H  2  S    0.000048   0.240422  -0.103793  -0.000000  -0.000000
   17  H  2  S   -0.000206   0.593683  -0.262758  -0.000000  -0.000000
   18  H  2  X    0.000000  -0.000000  -0.000000   0.001073  -0.000000
   19  H  2  Y    0.000000  -0.000000  -0.000000  -0.000000   0.001073
   20  H  2  Z   -0.000002  -0.001226  -0.000901  -0.000000  -0.000000

                      6          7          8          9         10
                    0.0604     0.1499     0.1674     0.1674     0.2171
                     A1         A1         B2         B1         A1  
    1  LI 1  S   -0.041875   0.058649  -0.000000  -0.000000   0.066043
    2  LI 1  S    0.550426   2.284544  -0.000000  -0.000000   2.284411
    3  LI 1  X   -0.000000  -0.000000  -0.000000   1.656481   0.000000
    4  LI 1  Y   -0.000000  -0.000000   1.656481  -0.000000   0.000000
    5  LI 1  Z    0.276717  -1.192898  -0.000000  -0.000000   1.189830
    6  LI 1  S   -0.164624  -1.786416  -0.000000  -0.000000  -1.829440
    7  LI 1  X   -0.000000  -0.000000  -0.000000  -1.468408   0.000000
    8  LI 1  Y   -0.000000  -0.000000  -1.468408  -0.000000   0.000000
    9  LI 1  Z    0.660857   0.988876  -0.000000  -0.000000  -1.245493
   10  LI 1 XX   -0.006070  -0.228915  -0.000000  -0.000000  -0.193243
   11  LI 1 YY   -0.006070  -0.228915  -0.000000  -0.000000  -0.193243
   12  LI 1 ZZ   -0.085209  -0.178575  -0.000000  -0.000000  -0.221371
   13  LI 1 XY   -0.000000  -0.000000  -0.000000  -0.000000   0.000000
   14  LI 1 XZ   -0.000000  -0.000000  -0.000000  -0.041134   0.000000
   15  LI 1 YZ   -0.000000  -0.000000  -0.041134  -0.000000   0.000000
   16  H  2  S   -0.111637   0.016775  -0.000000  -0.000000   0.045068
   17  H  2  S   -0.434893  -0.017267  -0.000000  -0.000000   0.363112
   18  H  2  X   -0.000000  -0.000000  -0.000000  -0.000975   0.000000
   19  H  2  Y   -0.000000  -0.000000  -0.000975  -0.000000   0.000000
   20  H  2  Z   -0.003401   0.001517  -0.000000  -0.000000   0.001280

                     11         12         13         14         15
                    0.5007     0.5007     0.5065     0.5065     0.5098
                     A1         A2         B1         B2         A1  
    1  LI 1  S    0.000000   0.000000  -0.000000  -0.000000  -0.001747
    2  LI 1  S    0.000000   0.000000  -0.000000  -0.000000   0.031874
    3  LI 1  X    0.000000   0.000000   0.074477  -0.000000   0.000000
    4  LI 1  Y    0.000000   0.000000  -0.000000   0.074477   0.000000
    5  LI 1  Z    0.000000   0.000000  -0.000000  -0.000000   0.073510
    6  LI 1  S    0.000000   0.000000  -0.000000  -0.000000   0.003057
    7  LI 1  X    0.000000   0.000000  -0.038865  -0.000000   0.000000
    8  LI 1  Y    0.000000   0.000000  -0.000000  -0.038865   0.000000
    9  LI 1  Z    0.000000   0.000000  -0.000000  -0.000000  -0.020741
   10  LI 1 XX    0.866025   0.000000  -0.000000  -0.000000  -0.509563
   11  LI 1 YY   -0.866025   0.000000  -0.000000  -0.000000  -0.509563
   12  LI 1 ZZ    0.000000   0.000000  -0.000000  -0.000000   0.985777
   13  LI 1 XY    0.000000   1.000000  -0.000000  -0.000000   0.000000
   14  LI 1 XZ    0.000000   0.000000   0.998792  -0.000000   0.000000
   15  LI 1 YZ    0.000000   0.000000  -0.000000   0.998792   0.000000
   16  H  2  S    0.000000   0.000000  -0.000000  -0.000000  -0.050858
   17  H  2  S    0.000000   0.000000  -0.000000  -0.000000  -0.004812
   18  H  2  X    0.000000   0.000000   0.000361  -0.000000   0.000000
   19  H  2  Y    0.000000   0.000000  -0.000000   0.000361   0.000000
   20  H  2  Z    0.000000   0.000000  -0.000000  -0.000000  -0.002173

                     16         17         18         19         20
                    1.1548     1.1954     2.4655     2.4655     2.4698
                     A1         A1         B1         B2         A1  
    1  LI 1  S    0.107308   0.050096  -0.000000  -0.000000  -0.004005
    2  LI 1  S    9.057902   2.848136  -0.000000  -0.000000  -0.011188
    3  LI 1  X    0.000000  -0.000000   0.015030  -0.000000  -0.000000
    4  LI 1  Y    0.000000  -0.000000  -0.000000   0.015030  -0.000000
    5  LI 1  Z   -0.002126   0.131647  -0.000000  -0.000000  -0.029614
    6  LI 1  S   -2.783153  -1.072962  -0.000000  -0.000000   0.051010
    7  LI 1  X    0.000000  -0.000000  -0.021353  -0.000000  -0.000000
    8  LI 1  Y    0.000000  -0.000000  -0.000000  -0.021353  -0.000000
    9  LI 1  Z    0.020035  -0.252942  -0.000000  -0.000000   0.060137
   10  LI 1 XX   -3.025473  -0.857085  -0.000000  -0.000000  -0.014459
   11  LI 1 YY   -3.025473  -0.857085  -0.000000  -0.000000  -0.014459
   12  LI 1 ZZ   -3.013034  -0.933608  -0.000000  -0.000000  -0.009468
   13  LI 1 XY    0.000000  -0.000000  -0.000000  -0.000000  -0.000000
   14  LI 1 XZ    0.000000  -0.000000  -0.000434  -0.000000  -0.000000
   15  LI 1 YZ    0.000000  -0.000000  -0.000000  -0.000434  -0.000000
   16  H  2  S    0.344835  -1.267049  -0.000000  -0.000000   0.014357
   17  H  2  S   -0.225886   1.134207  -0.000000  -0.000000  -0.028718
   18  H  2  X    0.000000  -0.000000   1.000065  -0.000000  -0.000000
   19  H  2  Y    0.000000  -0.000000  -0.000000   1.000065  -0.000000
   20  H  2  Z   -0.007664   0.002724  -0.000000  -0.000000   1.000785
 ...... END OF RHF CALCULATION ......
 STEP CPU TIME =     0.01 TOTAL CPU TIME =        0.0 (    0.0 MIN)
 TOTAL WALL CLOCK TIME=        0.1 SECONDS, CPU UTILIZATION IS  27.27%

     ----------------------------------------------------------------
     PROPERTY VALUES FOR THE RHF   SELF-CONSISTENT FIELD WAVEFUNCTION
     ----------------------------------------------------------------

          -----------------
          ENERGY COMPONENTS
          -----------------

         WAVEFUNCTION NORMALIZATION =       1.0000000000

                ONE ELECTRON ENERGY =     -10.9098510234
                TWO ELECTRON ENERGY =       2.6819619336
           NUCLEAR REPULSION ENERGY =       0.3779837495
                                      ------------------
                       TOTAL ENERGY =      -7.8499053403

 ELECTRON-ELECTRON POTENTIAL ENERGY =       2.6819619336
  NUCLEUS-ELECTRON POTENTIAL ENERGY =     -18.7136141718
   NUCLEUS-NUCLEUS POTENTIAL ENERGY =       0.3779837495
                                      ------------------
             TOTAL POTENTIAL ENERGY =     -15.6536684887
               TOTAL KINETIC ENERGY =       7.8037631485
                 VIRIAL RATIO (V/T) =       2.0059128129

  ...... PI ENERGY ANALYSIS ......

 ENERGY ANALYSIS:
            FOCK ENERGY=     -5.5459271280
          BARE H ENERGY=    -10.9098510234
     ELECTRONIC ENERGY =     -8.2278890757
         KINETIC ENERGY=      7.8037631485
          N-N REPULSION=      0.3779837495
           TOTAL ENERGY=     -7.8499053262
        SIGMA PART(1+2)=     -8.2278890757
               (K,V1,2)=      7.8037631485    -18.7136141718      2.6819619477
           PI PART(1+2)=      0.0000000000
               (K,V1,2)=      0.0000000000      0.0000000000      0.0000000000
  SIGMA SKELETON, ERROR=     -7.8499053262      0.0000000000
             MIXED PART= 0.00000E+00 0.00000E+00 0.00000E+00 0.00000E+00
 ...... END OF PI ENERGY ANALYSIS ......

          ---------------------------------------
          MULLIKEN AND LOWDIN POPULATION ANALYSES
          ---------------------------------------

     ATOMIC MULLIKEN POPULATION IN EACH MOLECULAR ORBITAL

                      1          2

                  2.000000   2.000000

    1             2.000000   0.662014
    2            -0.000000   1.337986

               ----- POPULATIONS IN EACH AO -----
                             MULLIKEN      LOWDIN
              1  LI 1  S      1.99799     1.97958
              2  LI 1  S     -0.06315     0.09895
              3  LI 1  X      0.00000     0.00000
              4  LI 1  Y      0.00000     0.00000
              5  LI 1  Z     -0.00283     0.02100
              6  LI 1  S      0.50126     0.32284
              7  LI 1  X      0.00000     0.00000
              8  LI 1  Y      0.00000     0.00000
              9  LI 1  Z      0.16810     0.14770
             10  LI 1 XX      0.01659     0.02507
             11  LI 1 YY      0.01659     0.02507
             12  LI 1 ZZ      0.02747     0.03411
             13  LI 1 XY      0.00000     0.00000
             14  LI 1 XZ      0.00000     0.00000
             15  LI 1 YZ      0.00000     0.00000
             16  H  2  S      0.31982     0.38987
             17  H  2  S      1.01813     0.95575
             18  H  2  X      0.00000     0.00000
             19  H  2  Y      0.00000     0.00000
             20  H  2  Z      0.00003     0.00009

          ----- MULLIKEN ATOMIC OVERLAP POPULATIONS -----
          (OFF-DIAGONAL ELEMENTS NEED TO BE MULTIPLIED BY 2)

             1           2

    1    2.5204000
    2    0.1416141   1.1963718

          TOTAL MULLIKEN AND LOWDIN ATOMIC POPULATIONS
       ATOM         MULL.POP.    CHARGE          LOW.POP.     CHARGE
    1 LI            2.662014    0.337986         2.654298    0.345702
    2 H             1.337986   -0.337986         1.345702   -0.345702

          -------------------------------
          BOND ORDER AND VALENCE ANALYSIS     BOND ORDER THRESHOLD=0.050
          -------------------------------

                   BOND                       BOND                       BOND
  ATOM PAIR DIST  ORDER      ATOM PAIR DIST  ORDER      ATOM PAIR DIST  ORDER
    1   2  4.200  0.886

                       TOTAL       BONDED        FREE
      ATOM            VALENCE     VALENCE     VALENCE
    1 LI                0.886       0.886      -0.000
    2 H                 0.886       0.886      -0.000

          ---------------------
          ELECTROSTATIC MOMENTS
          ---------------------

 POINT   1           X           Y           Z (BOHR)    CHARGE
                 0.000000    0.000000    0.996900       -0.00 (A.U.)
         DX          DY          DZ         /D/  (DEBYE)
     0.000000    0.000000  -11.501129   11.501129
 ...... END OF PROPERTY EVALUATION ......
 STEP CPU TIME =     0.01 TOTAL CPU TIME =        0.0 (    0.0 MIN)
 TOTAL WALL CLOCK TIME=        0.1 SECONDS, CPU UTILIZATION IS  36.36%
               580000  WORDS OF DYNAMIC MEMORY USED
 EXECUTION OF GAMESS TERMINATED NORMALLY Thu Jan 17 17:51:55 2019
 DDI: 263640 bytes (0.3 MB / 0 MWords) used by master data server.

 ----------------------------------------
 CPU timing information for all processes
 ========================================
 0: 0.30 + 0.13 = 0.43
 1: 0.01 + 0.02 = 0.03
 ----------------------------------------
 ddikick.x: exited gracefully.
unset echo
----- accounting info -----
Files used on the master node bach.ad64.riken.go.jp were:
-rw-------  1 maho  staff      223  1 17 17:51 .//LiH.631g/4.2/LiH.631g.Hartree-Fock.4.2.gamess.F05
-rw-r--r--  1 maho  staff   180016  1 17 17:51 .//LiH.631g/4.2/LiH.631g.Hartree-Fock.4.2.gamess.F08
-rw-r--r--  1 maho  staff  1537840  1 17 17:51 .//LiH.631g/4.2/LiH.631g.Hartree-Fock.4.2.gamess.F10
-rw-r--r--  1 maho  staff     7352  1 17 17:51 .//LiH.631g/4.2/LiH.631g.Hartree-Fock.4.2.gamess.dat
-rw-------  1 maho  staff      223  1 17 17:51 .//LiH.631g/4.2/LiH.631g.Hartree-Fock.4.2.gamess.inp
-rw-r--r--  1 maho  staff    29503  1 17 17:51 .//LiH.631g/4.2/LiH.631g.Hartree-Fock.4.2.gamess.log
ls: No match.
ls: No match.
ls: No match.
2019年 1月17日 木曜日 17時51分58秒 JST
0.142u 0.107s 0:03.55 6.7%	0+0k 1+1io 0pf+0w
