----- GAMESS execution script 'rungms' -----
This job is running on host localhost
under operating system Linux at Thu Jan 17 19:01:25 JST 2019
Available scratch disk space (Kbyte units) at beginning of the job is
Filesystem     1K-blocks      Used Available Use% Mounted on
/dev/sda1      895286904 141747144 708038732  17% /
GAMESS temporary binary files will be written to .
GAMESS supplementary output files will be written to .
Copying input file N2.SV/4.3/N2.SV.fullCI.4.3.gamess.inp to your run's scratch directory...
cp N2.SV/4.3/N2.SV.fullCI.4.3.gamess.inp ./N2.SV/4.3/N2.SV.fullCI.4.3.gamess.F05
unset echo
/work/pubchem/pm6/pkg/gamess_intel/ddikick.x /work/pubchem/pm6/pkg/gamess_intel/gamess.00.x N2.SV/4.3/N2.SV.fullCI.4.3.gamess -ddi 12 12 localhost localhost localhost localhost localhost localhost localhost localhost localhost localhost localhost localhost -scr .

 Distributed Data Interface kickoff program.
 Initiating 12 compute processes on 12 nodes to run the following command:
 /work/pubchem/pm6/pkg/gamess_intel/gamess.00.x N2.SV/4.3/N2.SV.fullCI.4.3.gamess 

          ******************************************************
          *         GAMESS VERSION =  5 DEC 2014 (R1)          *
          *             FROM IOWA STATE UNIVERSITY             *
          * M.W.SCHMIDT, K.K.BALDRIDGE, J.A.BOATZ, S.T.ELBERT, *
          *   M.S.GORDON, J.H.JENSEN, S.KOSEKI, N.MATSUNAGA,   *
          *          K.A.NGUYEN, S.J.SU, T.L.WINDUS,           *
          *       TOGETHER WITH M.DUPUIS, J.A.MONTGOMERY       *
          *         J.COMPUT.CHEM.  14, 1347-1363(1993)        *
          **************** 64 BIT INTEL VERSION ****************

  SINCE 1993, STUDENTS AND POSTDOCS WORKING AT IOWA STATE UNIVERSITY
  AND ALSO IN THEIR VARIOUS JOBS AFTER LEAVING ISU HAVE MADE IMPORTANT
  CONTRIBUTIONS TO THE CODE:
     IVANA ADAMOVIC, CHRISTINE AIKENS, YURI ALEXEEV, POOJA ARORA,
     ANDREY ASADCHEV, ROB BELL, PRADIPTA BANDYOPADHYAY, JONATHAN BENTZ,
     BRETT BODE, KURT BRORSEN, CALEB CARLIN, GALINA CHABAN, WEI CHEN,
     CHEOL HO CHOI, PAUL DAY, ALBERT DEFUSCO, NUWAN DESILVA, TIM DUDLEY,
     DMITRI FEDOROV, GRAHAM FLETCHER, MARK FREITAG, KURT GLAESEMANN,
     DAN KEMP, GRANT MERRILL, NORIYUKI MINEZAWA, JONATHAN MULLIN,
     TAKESHI NAGATA, SEAN NEDD, HEATHER NETZLOFF, BOSILJKA NJEGIC, RYAN OLSON,
     MIKE PAK, SPENCER PRUITT, LUKE ROSKOP, JIM SHOEMAKER, LYUDMILA SLIPCHENKO,
     TONY SMITH, SAROM SOK, JIE SONG, TETSUYA TAKETSUGU, SIMON WEBB,
     PENG XU, SOOHAENG YOO, FEDERICO ZAHARIEV

  ADDITIONAL CODE HAS BEEN PROVIDED BY COLLABORATORS IN OTHER GROUPS:
     IOWA STATE UNIVERSITY:
          JOE IVANIC, AARON WEST, LAIMUTIS BYTAUTAS, KLAUS RUEDENBERG
     UNIVERSITY OF TOKYO: KIMIHIKO HIRAO, TAKAHITO NAKAJIMA,
          TAKAO TSUNEDA, MUNEAKI KAMIYA, SUSUMU YANAGISAWA,
          KIYOSHI YAGI, MAHITO CHIBA, SEIKEN TOKURA, NAOAKI KAWAKAMI
     UNIVERSITY OF AARHUS: FRANK JENSEN
     UNIVERSITY OF IOWA: VISVALDAS KAIRYS, HUI LI
     NATIONAL INST. OF STANDARDS AND TECHNOLOGY: WALT STEVENS, DAVID GARMER
     UNIVERSITY OF PISA: BENEDETTA MENNUCCI, JACOPO TOMASI
     UNIVERSITY OF MEMPHIS: HENRY KURTZ, PRAKASHAN KORAMBATH
     UNIVERSITY OF ALBERTA: TOBY ZENG, MARIUSZ KLOBUKOWSKI
     UNIVERSITY OF NEW ENGLAND: MARK SPACKMAN
     MIE UNIVERSITY: HIROAKI UMEDA
     NAT. INST. OF ADVANCED INDUSTRIAL SCIENCE AND TECHNOLOGY: KAZUO KITAURA
     MICHIGAN STATE UNIVERSITY:
          KAROL KOWALSKI, MARTA WLOCH, JEFFREY GOUR, JESSE LUTZ,
          WEI LI, PIOTR PIECUCH
     UNIVERSITY OF SILESIA: MONIKA MUSIAL, STANISLAW KUCHARSKI
     FACULTES UNIVERSITAIRES NOTRE-DAME DE LA PAIX:
          OLIVIER QUINET, BENOIT CHAMPAGNE
     UNIVERSITY OF CALIFORNIA - SANTA BARBARA: BERNARD KIRTMAN
     INSTITUTE FOR MOLECULAR SCIENCE:
          KAZUYA ISHIMURA, MICHIO KATOUDA, AND SHIGERU NAGASE
     UNIVERSITY OF NOTRE DAME: ANNA POMOGAEVA, DAN CHIPMAN
     KYUSHU UNIVERSITY:
          HARUYUKI NAKANO,
          FENG LONG GU, JACEK KORCHOWIEC, MARCIN MAKOWSKI, AND YURIKO AOKI,
          HIROTOSHI MORI AND EISAKU MIYOSHI
     PENNSYLVANIA STATE UNIVERSITY:
          TZVETELIN IORDANOV, CHET SWALINA, JONATHAN SKONE,
          SHARON HAMMES-SCHIFFER
     WASEDA UNIVERSITY:
          MASATO KOBAYASHI, TOMOKO AKAMA, TSUGUKI TOUMA,
          TAKESHI YOSHIKAWA, YASUHIRO IKABATA, HIROMI NAKAI
     NANJING UNIVERSITY: SHUHUA LI
     UNIVERSITY OF NEBRASKA:
          PEIFENG SU, DEJUN SI, NANDUN THELLAMUREGE, YALI WANG, HUI LI
     UNIVERSITY OF ZURICH: ROBERTO PEVERATI, KIM BALDRIDGE
     N. COPERNICUS UNIVERSITY AND JACKSON STATE UNIVERSITY:
          MARIA BARYSZ
     UNIVERSITY OF COPENHAGEN: CASPER STEINMANN
     TOKYO INSTITUTE OF TECHNOLOGY: HIROYA NAKATA
     NAGOYA UNIVERSITY: YOSHIO NISHIMOTO, STEPHAN IRLE


 PARALLEL VERSION RUNNING ON       12 PROCESSORS IN       12 NODES.

 EXECUTION OF GAMESS BEGUN Thu Jan 17 19:01:25 2019

            ECHO OF THE FIRST FEW INPUT CARDS -
 INPUT CARD> $CONTRL SCFTYP=RHF CITYP=ALDET $END                                            
 INPUT CARD> $GUESS GUESS=HUCKEL $END                                                       
 INPUT CARD> $SYSTEM MWORDS=300 $END                                                        
 INPUT CARD> $CIDET SZ=0 GROUP=C2V NCORE=2 NACT=16 NELS=10 NSTGSS=6 $END                    
 INPUT CARD> $DATA                                                                          
 INPUT CARD>N2...HF...Double-zeta basis                                                     
 INPUT CARD>Cnv   2                                                                         
 INPUT CARD>                                                                                
 INPUT CARD>N     7.0    0.0      0.0     0.0                                               
 INPUT CARD>S   7                                                                           
 INPUT CARD>  1   5909.0000000              0.0011900                                       
 INPUT CARD>  2    887.5000000              0.0090990                                       
 INPUT CARD>  3    204.7000000              0.0441450                                       
 INPUT CARD>  4     59.8400000              0.1504640                                       
 INPUT CARD>  5     20.0000000              0.3567410                                       
 INPUT CARD>  6      7.1930000              0.4465330                                       
 INPUT CARD>  7      2.6860000              0.1456030                                       
 INPUT CARD>S   2                                                                           
 INPUT CARD>  1      7.1930000             -0.1604050                                       
 INPUT CARD>  2      0.7000000              1.0582150                                       
 INPUT CARD>S   1                                                                           
 INPUT CARD>  1      0.2133000              1.0000000                                       
 INPUT CARD>P   4                                                                           
 INPUT CARD>  1     26.7900000              0.0182540                                       
 INPUT CARD>  2      5.9560000              0.1164610                                       
 INPUT CARD>  3      1.7070000              0.3901780                                       
 INPUT CARD>  4      0.5314000              0.6371020                                       
 INPUT CARD>P   1                                                                           
 INPUT CARD>  1      0.1654000              1.0000000                                       
 INPUT CARD>                                                                                
 INPUT CARD>N     7.0    0.0      0.0     4.3                                               
 INPUT CARD>S   7                                                                           
 INPUT CARD>  1   5909.0000000              0.0011900                                       
 INPUT CARD>  2    887.5000000              0.0090990                                       
 INPUT CARD>  3    204.7000000              0.0441450                                       
 INPUT CARD>  4     59.8400000              0.1504640                                       
 INPUT CARD>  5     20.0000000              0.3567410                                       
 INPUT CARD>  6      7.1930000              0.4465330                                       
 INPUT CARD>  7      2.6860000              0.1456030                                       
 INPUT CARD>S   2                                                                           
 INPUT CARD>  1      7.1930000             -0.1604050                                       
 INPUT CARD>  2      0.7000000              1.0582150                                       
 INPUT CARD>S   1                                                                           
 INPUT CARD>  1      0.2133000              1.0000000                                       
 INPUT CARD>P   4                                                                           
 INPUT CARD>  1     26.7900000              0.0182540                                       
 INPUT CARD>  2      5.9560000              0.1164610                                       
 INPUT CARD>  3      1.7070000              0.3901780                                       
 INPUT CARD>  4      0.5314000              0.6371020                                       
 INPUT CARD>P   1                                                                           
  300000000 WORDS OF MEMORY AVAILABLE


     RUN TITLE
     ---------
 N2...HF...Double-zeta basis                                                     

 THE POINT GROUP OF THE MOLECULE IS CNV     
 THE ORDER OF THE PRINCIPAL AXIS IS     2

 ATOM      ATOMIC                      COORDINATES (BOHR)
           CHARGE         X                   Y                   Z
 N           7.0     0.0000000000        0.0000000000        0.0000000000
 N           7.0     0.0000000000        0.0000000000        8.1258217472

          INTERNUCLEAR DISTANCES (ANGS.)
          ------------------------------

                1 N          2 N     

   1 N       0.0000000    4.3000000  
   2 N       4.3000000    0.0000000  

  * ... LESS THAN  3.000


     ATOMIC BASIS SET
     ----------------
 THE CONTRACTED PRIMITIVE FUNCTIONS HAVE BEEN UNNORMALIZED
 THE CONTRACTED BASIS FUNCTIONS ARE NOW NORMALIZED TO UNITY

  SHELL TYPE  PRIMITIVE        EXPONENT          CONTRACTION COEFFICIENT(S)

 N         

      1   S       1          5909.0000000    0.001189999548
      1   S       2           887.5000000    0.009098996542
      1   S       3           204.7000000    0.044144983225
      1   S       4            59.8400000    0.150463942825
      1   S       5            20.0000000    0.356740864442
      1   S       6             7.1930000    0.446532830321
      1   S       7             2.6860000    0.145602944672

      2   S       8             7.1930000   -0.160405033446
      2   S       9             0.7000000    1.058215220651

      3   S      10             0.2133000    1.000000000000

      4   P      11            26.7900000    0.018253998243
      4   P      12             5.9560000    0.116460988791
      4   P      13             1.7070000    0.390177962446
      4   P      14             0.5314000    0.637101938680

      5   P      15             0.1654000    1.000000000000

 N         

      6   S      16          5909.0000000    0.001189999548
      6   S      17           887.5000000    0.009098996542
      6   S      18           204.7000000    0.044144983225
      6   S      19            59.8400000    0.150463942825
      6   S      20            20.0000000    0.356740864442
      6   S      21             7.1930000    0.446532830321
      6   S      22             2.6860000    0.145602944672

      7   S      23             7.1930000   -0.160405033446
      7   S      24             0.7000000    1.058215220651

      8   S      25             0.2133000    1.000000000000

      9   P      26            26.7900000    0.018253998243
      9   P      27             5.9560000    0.116460988791
      9   P      28             1.7070000    0.390177962446
      9   P      29             0.5314000    0.637101938680

     10   P      30             0.1654000    1.000000000000

 TOTAL NUMBER OF BASIS SET SHELLS             =   10
 NUMBER OF CARTESIAN GAUSSIAN BASIS FUNCTIONS =   18
 NUMBER OF ELECTRONS                          =   14
 CHARGE OF MOLECULE                           =    0
 SPIN MULTIPLICITY                            =    1
 NUMBER OF OCCUPIED ORBITALS (ALPHA)          =    7
 NUMBER OF OCCUPIED ORBITALS (BETA )          =    7
 TOTAL NUMBER OF ATOMS                        =    2
 THE NUCLEAR REPULSION ENERGY IS        6.0301593518

 THIS MOLECULE IS RECOGNIZED AS BEING LINEAR,
 ORBITAL LZ DEGENERACY TOLERANCE ETOLLZ= 1.00E-06

     $CONTRL OPTIONS
     ---------------
 SCFTYP=RHF          RUNTYP=ENERGY       EXETYP=RUN     
 MPLEVL=       0     CITYP =ALDET        CCTYP =NONE         VBTYP =NONE    
 DFTTYP=NONE         TDDFT =NONE    
 MULT  =       1     ICHARG=       0     NZVAR =       0     COORD =UNIQUE  
 PP    =NONE         RELWFN=NONE         LOCAL =NONE         NUMGRD=       F
 ISPHER=      -1     NOSYM =       0     MAXIT =      30     UNITS =ANGS    
 PLTORB=       F     MOLPLT=       F     AIMPAC=       F     FRIEND=        
 NPRINT=       7     IREST =       0     GEOM  =INPUT   
 NORMF =       0     NORMP =       0     ITOL  =      20     ICUT  =       9
 INTTYP=BEST         GRDTYP=BEST         QMTTOL= 1.0E-06

     $SYSTEM OPTIONS
     ---------------
  REPLICATED MEMORY=   300000000 WORDS (ON EVERY NODE).
 DISTRIBUTED MEMDDI=           0 MILLION WORDS IN AGGREGATE,
 MEMDDI DISTRIBUTED OVER  12 PROCESSORS IS           0 WORDS/PROCESSOR.
 TOTAL MEMORY REQUESTED ON EACH PROCESSOR=   300000000 WORDS.
 TIMLIM=      525600.00 MINUTES, OR     365.0 DAYS.
 PARALL= T  BALTYP=  DLB     KDIAG=    0  COREFL= F
 MXSEQ2=     300 MXSEQ3=     150  mem10=         0

          ----------------
          PROPERTIES INPUT
          ----------------

     MOMENTS            FIELD           POTENTIAL          DENSITY
 IEMOM =       1   IEFLD =       0   IEPOT =       0   IEDEN =       0
 WHERE =COMASS     WHERE =NUCLEI     WHERE =NUCLEI     WHERE =NUCLEI  
 OUTPUT=BOTH       OUTPUT=BOTH       OUTPUT=BOTH       OUTPUT=BOTH    
 IEMINT=       0   IEFINT=       0                     IEDINT=       0
                                                       MORB  =       0
          EXTRAPOLATION IN EFFECT
          SOSCF IN EFFECT
 ORBITAL PRINTING OPTION: NPREO=     1    18     2     1

     -------------------------------
     INTEGRAL TRANSFORMATION OPTIONS
     -------------------------------
     NWORD  =            0
     CUTOFF = 1.0E-09     MPTRAN =       0
     DIRTRF =       F     AOINTS =DUP     

          ----------------------
          INTEGRAL INPUT OPTIONS
          ----------------------
 NOPK  =       1 NORDER=       0 SCHWRZ=       F

     ------------------------------------------
     THE POINT GROUP IS CNV, NAXIS= 2, ORDER= 4
     ------------------------------------------

     DIMENSIONS OF THE SYMMETRY SUBSPACES ARE
 A1  =   10     A2  =    0     B1  =    4     B2  =    4

 ..... DONE SETTING UP THE RUN .....
 CPU     0: STEP CPU TIME=     0.02 TOTAL CPU TIME=        0.0 (    0.0 MIN)
 TOTAL WALL CLOCK TIME=        0.0 SECONDS, CPU UTILIZATION IS 100.00%

          ********************
          1 ELECTRON INTEGRALS
          ********************
 ...... END OF ONE-ELECTRON INTEGRALS ......
 CPU     0: STEP CPU TIME=     0.00 TOTAL CPU TIME=        0.0 (    0.0 MIN)
 TOTAL WALL CLOCK TIME=        0.1 SECONDS, CPU UTILIZATION IS  33.33%

          -------------
          GUESS OPTIONS
          -------------
          GUESS =HUCKEL            NORB  =       0          NORDER=       0
          MIX   =       F          PRTMO =       F          PUNMO =       F
          TOLZ  = 1.0E-08          TOLE  = 1.0E-05
          SYMDEN=       F          PURIFY=       F

 INITIAL GUESS ORBITALS GENERATED BY HUCKEL   ROUTINE.
 HUCKEL GUESS REQUIRES      4352 WORDS.

 SYMMETRIES FOR INITIAL GUESS ORBITALS FOLLOW.   BOTH SET(S).
     7 ORBITALS ARE OCCUPIED (    2 CORE ORBITALS).
     3=A1       4=A1       5=A1       6=B2       7=B1       8=B1       9=B2  
    10=A1      11=A1      12=A1      13=A1      14=A1      15=B1      16=B1  
    17=B2  
 ...... END OF INITIAL ORBITAL SELECTION ......
 CPU     0: STEP CPU TIME=     0.01 TOTAL CPU TIME=        0.0 (    0.0 MIN)
 TOTAL WALL CLOCK TIME=        0.1 SECONDS, CPU UTILIZATION IS  50.00%

                    ----------------------
                    AO INTEGRAL TECHNOLOGY
                    ----------------------
     S,P,L SHELL ROTATED AXIS INTEGRALS, REPROGRAMMED BY
        KAZUYA ISHIMURA (IMS) AND JOSE SIERRA (SYNSTAR).
     S,P,D,L SHELL ROTATED AXIS INTEGRALS PROGRAMMED BY
        KAZUYA ISHIMURA (INSTITUTE FOR MOLECULAR SCIENCE).
     S,P,D,F,G SHELL TO TOTAL QUARTET ANGULAR MOMENTUM SUM 5,
        ERIC PROGRAM BY GRAHAM FLETCHER (ELORET AND NASA ADVANCED
        SUPERCOMPUTING DIVISION, AMES RESEARCH CENTER).
     S,P,D,F,G,L SHELL GENERAL RYS QUADRATURE PROGRAMMED BY
        MICHEL DUPUIS (PACIFIC NORTHWEST NATIONAL LABORATORY).

          --------------------
          2 ELECTRON INTEGRALS
          --------------------

 THE -PK- OPTION IS OFF, THE INTEGRALS ARE NOT IN SUPERMATRIX FORM.
 STORING   15000 INTEGRALS/RECORD ON DISK, USING 12 BYTES/INTEGRAL.
 TWO ELECTRON INTEGRAL EVALUATION REQUIRES   89411 WORDS OF MEMORY.
 II,JST,KST,LST =  1  1  1  1 NREC =         1 INTLOC =    1
 II,JST,KST,LST =  2  1  1  1 NREC =         1 INTLOC =    2
 II,JST,KST,LST =  3  1  1  1 NREC =         1 INTLOC =    6
 II,JST,KST,LST =  4  1  1  1 NREC =         1 INTLOC =   20
 II,JST,KST,LST =  5  1  1  1 NREC =         1 INTLOC =   20
 II,JST,KST,LST =  6  1  1  1 NREC =         1 INTLOC =   80
 II,JST,KST,LST =  7  1  1  1 NREC =         1 INTLOC =   80
 II,JST,KST,LST =  8  1  1  1 NREC =         1 INTLOC =   93
 II,JST,KST,LST =  9  1  1  1 NREC =         1 INTLOC =  195
 II,JST,KST,LST = 10  1  1  1 NREC =         1 INTLOC =  361
 TOTAL NUMBER OF NONZERO TWO-ELECTRON INTEGRALS =                3031
         12 INTEGRAL RECORDS WERE STORED ON DISK FILE  8.
  ...... END OF TWO-ELECTRON INTEGRALS .....
 CPU     0: STEP CPU TIME=     0.01 TOTAL CPU TIME=        0.0 (    0.0 MIN)
 TOTAL WALL CLOCK TIME=        0.1 SECONDS, CPU UTILIZATION IS  50.00%

          --------------------------
                 RHF SCF CALCULATION
          --------------------------

     NUCLEAR ENERGY =         6.0301593518
     MAXIT =   30     NPUNCH=    2
     EXTRAP=T  DAMP=F  SHIFT=F  RSTRCT=F  DIIS=F  DEM=F  SOSCF=T
     DENSITY MATRIX CONV=  1.00E-06
     SOSCF WILL OPTIMIZE      77 ORBITAL ROTATIONS, SOGTOL=   0.250
     MEMORY REQUIRED FOR RHF ITERS=     32828 WORDS.

 ITER EX DEM     TOTAL ENERGY        E CHANGE  DENSITY CHANGE     ORB. GRAD
   1  0  0     -107.6768057233  -107.6768057233   0.270348718   0.000000000
          ---------------START SECOND ORDER SCF---------------
   2  1  0     -107.8581896622    -0.1813839388   0.115625237   0.062389577
   3  2  0     -107.8736594755    -0.0154698133   0.025741932   0.024225645
   4  3  0     -107.8767009996    -0.0030415241   0.002760051   0.001301246
   5  4  0     -107.8767122539    -0.0000112543   0.000917886   0.000371654
   6  5  0     -107.8767127989    -0.0000005451   0.000018193   0.000014596
   7  6  0     -107.8767128005    -0.0000000015   0.000005955   0.000002799
   8  7  0     -107.8767128006    -0.0000000001   0.000000651   0.000000344
   9  8  0     -107.8767128006    -0.0000000000   0.000000044   0.000000024

          -----------------
          DENSITY CONVERGED
          -----------------
     TIME TO FORM FOCK OPERATORS=       0.0 SECONDS (       0.0 SEC/ITER)
     TIME TO SOLVE SCF EQUATIONS=       0.0 SECONDS (       0.0 SEC/ITER)

 FINAL RHF ENERGY IS     -107.8767128006 AFTER   9 ITERATIONS

 LZ VALUE ANALYSIS FOR THE MOS
 ----------------------------------------
 MO     1 (    1) HAS LZ(WEIGHT)= 0.00(100.0%) 
 MO     2 (    2) HAS LZ(WEIGHT)= 0.00(100.0%) 
 MO     3 (    3) HAS LZ(WEIGHT)= 0.00(100.0%) 
 MO     4 (    4) HAS LZ(WEIGHT)= 0.00(100.0%) 
 MO     5 (    5) HAS LZ(WEIGHT)= 0.00(100.0%) 
 MO     6 (    6) HAS LZ(WEIGHT)=-1.00( 50.0%)  1.00( 50.0%) 
 MO     7 (    6) HAS LZ(WEIGHT)=-1.00( 50.0%)  1.00( 50.0%) 
 MO     8 (    7) HAS LZ(WEIGHT)=-1.00( 50.0%)  1.00( 50.0%) 
 MO     9 (    7) HAS LZ(WEIGHT)=-1.00( 50.0%)  1.00( 50.0%) 
 MO    10 (    8) HAS LZ(WEIGHT)= 0.00(100.0%) 
 MO    11 (    9) HAS LZ(WEIGHT)= 0.00(100.0%) 
 MO    12 (   10) HAS LZ(WEIGHT)=-1.00( 50.0%)  1.00( 50.0%) 
 MO    13 (   10) HAS LZ(WEIGHT)=-1.00( 50.0%)  1.00( 50.0%) 
 MO    14 (   11) HAS LZ(WEIGHT)=-1.00( 50.0%)  1.00( 50.0%) 
 MO    15 (   11) HAS LZ(WEIGHT)=-1.00( 50.0%)  1.00( 50.0%) 
 MO    16 (   12) HAS LZ(WEIGHT)= 0.00(100.0%) 
 MO    17 (   13) HAS LZ(WEIGHT)= 0.00(100.0%) 
 MO    18 (   14) HAS LZ(WEIGHT)= 0.00(100.0%) 

          ------------
          EIGENVECTORS
          ------------

                      1          2          3          4          5
                  -15.8194   -15.8193    -1.0291    -1.0238    -0.3187
                     A1         A1         A1         A1         A1  
    1  N  1  S    0.706971   0.706974  -0.173298   0.173533  -0.002382
    2  N  1  S   -0.000111  -0.000104   0.408985  -0.411766   0.013391
    3  N  1  S    0.000906   0.000879   0.359504  -0.356879  -0.005894
    4  N  1  X    0.000000   0.000000   0.000000   0.000000   0.000000
    5  N  1  Y    0.000000   0.000000   0.000000   0.000000   0.000000
    6  N  1  Z    0.000081   0.000048   0.002717   0.005829  -0.494567
    7  N  1  X    0.000000   0.000000   0.000000   0.000000   0.000000
    8  N  1  Y    0.000000   0.000000   0.000000   0.000000   0.000000
    9  N  1  Z   -0.000019  -0.000037   0.003660   0.004232  -0.303901
   10  N  2  S    0.706971  -0.706974  -0.173298  -0.173533  -0.002382
   11  N  2  S   -0.000111   0.000104   0.408985   0.411766   0.013391
   12  N  2  S    0.000906  -0.000879   0.359504   0.356879  -0.005894
   13  N  2  X    0.000000   0.000000   0.000000   0.000000   0.000000
   14  N  2  Y    0.000000   0.000000   0.000000   0.000000   0.000000
   15  N  2  Z   -0.000081   0.000048  -0.002717   0.005829   0.494567
   16  N  2  X    0.000000   0.000000   0.000000   0.000000   0.000000
   17  N  2  Y    0.000000   0.000000   0.000000   0.000000   0.000000
   18  N  2  Z    0.000019  -0.000037  -0.003660   0.004232   0.303901

                      6          7          8          9         10
                   -0.3138    -0.3138    -0.1919    -0.1919    -0.1825
                     B2         B1         B2         B1         A1  
    1  N  1  S    0.000000   0.000000   0.000000   0.000000  -0.002937
    2  N  1  S    0.000000   0.000000   0.000000   0.000000   0.011548
    3  N  1  S    0.000000   0.000000   0.000000   0.000000  -0.000610
    4  N  1  X    0.000000   0.504515   0.000000  -0.505502   0.000000
    5  N  1  Y    0.504515   0.000000  -0.505502   0.000000   0.000000
    6  N  1  Z    0.000000   0.000000   0.000000   0.000000   0.509777
    7  N  1  X    0.000000   0.295933   0.000000  -0.295491   0.000000
    8  N  1  Y    0.295933   0.000000  -0.295491   0.000000   0.000000
    9  N  1  Z    0.000000   0.000000   0.000000   0.000000   0.293677
   10  N  2  S    0.000000   0.000000   0.000000   0.000000   0.002937
   11  N  2  S    0.000000   0.000000   0.000000   0.000000  -0.011548
   12  N  2  S    0.000000   0.000000   0.000000   0.000000   0.000610
   13  N  2  X    0.000000   0.504515   0.000000   0.505502   0.000000
   14  N  2  Y    0.504515   0.000000   0.505502   0.000000   0.000000
   15  N  2  Z    0.000000   0.000000   0.000000   0.000000   0.509777
   16  N  2  X    0.000000   0.295933   0.000000   0.295491   0.000000
   17  N  2  Y    0.295933   0.000000   0.295491   0.000000   0.000000
   18  N  2  Z    0.000000   0.000000   0.000000   0.000000   0.293677

                     11         12         13         14         15
                    0.6037     0.6372     0.6372     0.6482     0.6482
                     A1         B2         B1         B2         B1  
    1  N  1  S    0.005790   0.000000   0.000000   0.000000   0.000000
    2  N  1  S   -0.059616   0.000000   0.000000   0.000000   0.000000
    3  N  1  S    0.054463   0.000000   0.000000   0.000000   0.000000
    4  N  1  X    0.000000   0.000000  -0.661142   0.000000   0.661940
    5  N  1  Y    0.000000  -0.661142   0.000000   0.661940   0.000000
    6  N  1  Z   -0.661677   0.000000   0.000000   0.000000   0.000000
    7  N  1  X    0.000000   0.000000   0.775332   0.000000  -0.780604
    8  N  1  Y    0.000000   0.775332   0.000000  -0.780604   0.000000
    9  N  1  Z    0.749039   0.000000   0.000000   0.000000   0.000000
   10  N  2  S    0.005790   0.000000   0.000000   0.000000   0.000000
   11  N  2  S   -0.059616   0.000000   0.000000   0.000000   0.000000
   12  N  2  S    0.054463   0.000000   0.000000   0.000000   0.000000
   13  N  2  X    0.000000   0.000000  -0.661142   0.000000  -0.661940
   14  N  2  Y    0.000000  -0.661142   0.000000  -0.661940   0.000000
   15  N  2  Z    0.661677   0.000000   0.000000   0.000000   0.000000
   16  N  2  X    0.000000   0.000000   0.775332   0.000000   0.780604
   17  N  2  Y    0.000000   0.775332   0.000000   0.780604   0.000000
   18  N  2  Z   -0.749039   0.000000   0.000000   0.000000   0.000000

                     16         17         18
                    0.6881     0.9018     0.9134
                     A1         A1         A1  
    1  N  1  S   -0.007762  -0.091054   0.090443
    2  N  1  S    0.086248   1.107967  -1.106959
    3  N  1  S   -0.081682  -1.101359   1.103355
    4  N  1  X    0.000000   0.000000   0.000000
    5  N  1  Y    0.000000   0.000000   0.000000
    6  N  1  Z   -0.663337  -0.035308  -0.053773
    7  N  1  X    0.000000   0.000000   0.000000
    8  N  1  Y    0.000000   0.000000   0.000000
    9  N  1  Z    0.801328   0.051619   0.074042
   10  N  2  S    0.007762  -0.091054  -0.090443
   11  N  2  S   -0.086248   1.107967   1.106959
   12  N  2  S    0.081682  -1.101359  -1.103355
   13  N  2  X    0.000000   0.000000   0.000000
   14  N  2  Y    0.000000   0.000000   0.000000
   15  N  2  Z   -0.663337   0.035308  -0.053773
   16  N  2  X    0.000000   0.000000   0.000000
   17  N  2  Y    0.000000   0.000000   0.000000
   18  N  2  Z    0.801328  -0.051619   0.074042
 ...... END OF RHF CALCULATION ......
 CPU     0: STEP CPU TIME=     0.01 TOTAL CPU TIME=        0.0 (    0.0 MIN)
 TOTAL WALL CLOCK TIME=        0.1 SECONDS, CPU UTILIZATION IS  55.56%

     ----------------------------------------------------------------
     PROPERTY VALUES FOR THE RHF   SELF-CONSISTENT FIELD WAVEFUNCTION
     ----------------------------------------------------------------

          -----------------
          ENERGY COMPONENTS
          -----------------

         WAVEFUNCTION NORMALIZATION =       1.0000000000

                ONE ELECTRON ENERGY =    -158.5379531184
                TWO ELECTRON ENERGY =      44.6310809660
           NUCLEAR REPULSION ENERGY =       6.0301593518
                                      ------------------
                       TOTAL ENERGY =    -107.8767128006

 ELECTRON-ELECTRON POTENTIAL ENERGY =      44.6310809660
  NUCLEUS-ELECTRON POTENTIAL ENERGY =    -266.0539834969
   NUCLEUS-NUCLEUS POTENTIAL ENERGY =       6.0301593518
                                      ------------------
             TOTAL POTENTIAL ENERGY =    -215.3927431790
               TOTAL KINETIC ENERGY =     107.5160303785
                 VIRIAL RATIO (V/T) =       2.0033546851

  ...... PI ENERGY ANALYSIS ......

 ENERGY ANALYSIS:
            FOCK ENERGY=    -69.2757908064
          BARE H ENERGY=   -158.5379531184
     ELECTRONIC ENERGY =   -113.9068719624
         KINETIC ENERGY=    107.5160303785
          N-N REPULSION=      6.0301593518
           TOTAL ENERGY=   -107.8767126106
        SIGMA PART(1+2)=   -102.4296066476
               (K,V1,2)=    101.0635872081   -237.9021859557     34.4089921000
           PI PART(1+2)=    -11.4772653148
               (K,V1,2)=      6.4524431703    -28.1517975411     10.2220890560
  SIGMA SKELETON, ERROR=    -96.3994472958     -0.0000000000
             MIXED PART= 0.00000E+00 0.00000E+00 0.00000E+00 0.00000E+00
 ...... END OF PI ENERGY ANALYSIS ......

          ---------------------------------------
          MULLIKEN AND LOWDIN POPULATION ANALYSES
          ---------------------------------------

               ----- POPULATIONS IN EACH AO -----
                             MULLIKEN      LOWDIN
              1  N  1  S      2.00012     1.99715
              2  N  1  S      1.06507     1.03499
              3  N  1  S      0.93473     0.96776
              4  N  1  X      0.66659     0.64135
              5  N  1  Y      0.66659     0.64135
              6  N  1  Z      0.64836     0.62406
              7  N  1  X      0.33341     0.35865
              8  N  1  Y      0.33341     0.35865
              9  N  1  Z      0.35172     0.37604
             10  N  2  S      2.00012     1.99715
             11  N  2  S      1.06507     1.03499
             12  N  2  S      0.93473     0.96776
             13  N  2  X      0.66659     0.64135
             14  N  2  Y      0.66659     0.64135
             15  N  2  Z      0.64836     0.62406
             16  N  2  X      0.33341     0.35865
             17  N  2  Y      0.33341     0.35865
             18  N  2  Z      0.35172     0.37604

          ----- MULLIKEN ATOMIC OVERLAP POPULATIONS -----
          (OFF-DIAGONAL ELEMENTS NEED TO BE MULTIPLIED BY 2)

             1           2

    1    6.9894241
    2    0.0105759   6.9894241

          TOTAL MULLIKEN AND LOWDIN ATOMIC POPULATIONS
       ATOM         MULL.POP.    CHARGE          LOW.POP.     CHARGE
    1 N             7.000000   -0.000000         7.000000   -0.000000
    2 N             7.000000    0.000000         7.000000    0.000000

          ---------------------
          ELECTROSTATIC MOMENTS
          ---------------------

 POINT   1           X           Y           Z (BOHR)    CHARGE
                 0.000000    0.000000    4.062911        0.00 (A.U.)
         DX          DY          DZ         /D/  (DEBYE)
     0.000000    0.000000    0.000000    0.000000
 ...... END OF PROPERTY EVALUATION ......
 CPU     0: STEP CPU TIME=     0.01 TOTAL CPU TIME=        0.1 (    0.0 MIN)
 TOTAL WALL CLOCK TIME=        0.1 SECONDS, CPU UTILIZATION IS  42.86%

 DETERMINANT CI OPTIONS   NRNFG   NPFLG
 INTEGRAL TRANSFORMATION    1       0
 DIAGONALIZE HAMILTONIAN    1       0
 FORM 1E- DENSITY MATRIX    1       0
 FORM 2E- DENSITY MATRIX    0       0

     --------------------------------------------------
          AMES LABORATORY DETERMINANTAL FULL CI
     PROGRAM WRITTEN BY JOE IVANIC AND KLAUS RUEDENBERG
     --------------------------------------------------

 THE POINT GROUP                  =   C2V     
 THE STATE SYMMETRY               =   A1      
 NUMBER OF CORE ORBITALS          =    2
 NUMBER OF ACTIVE ORBITALS        =   16
 NUMBER OF ALPHA ELECTRONS        =    7 (   5 ACTIVE)
 NUMBER OF BETA ELECTRONS         =    7 (   5 ACTIVE)
 NUMBER OF OCCUPIED ORBITALS      =   18
 NUMBER OF CI STATES REQUESTED    =    1
 NUMBER OF CI STARTING VECTORS    =    6
 MAX. NO. OF CI EXPANSION VECTORS =   12
 SIZE OF INITIAL CI GUESS MATRIX  =  300
 MAX. NO. OF CI ITERS/STATE       =  100
 CI DIAGONALIZATION CRITERION     = 1.00E-06
 CI PROPERTIES WILL BE FOUND FOR ROOT NUMBER   1
 1E- DENSITY MATRIX OPTIONS ARE 1

 CORRELATION ENERGY ANALYSIS      =    F

 SYMMETRIES FOR THE   2 CORE,  16 ACTIVE ARE

     CORE= A1    A1  

   ACTIVE= A1    A1    A1    B2    B1    B2    B1    A1    A1    B2  
           B1    B2    B1    A1    A1    A1  

     --------------------------------------------
     PARTIAL TWO ELECTRON INTEGRAL TRANSFORMATION
     --------------------------------------------

 NUMBER OF CORE MOLECULAR ORBITALS     =    2
 NUMBER OF OCCUPIED MOLECULAR ORBITALS =   18
 TOTAL NUMBER OF MOLECULAR ORBITALS    =   18
 TOTAL NUMBER OF ATOMIC ORBITALS       =   18
 THRESHOLD FOR KEEPING TRANSFORMED 2E- INTEGRALS = 1.000E-09

 -------------------------------     ------------------------------
 DISTRIBUTED DATA TRANSFORMATION     PROGRAM WRITTEN BY G. FLETCHER
 -------------------------------     ------------------------------

 THE DISTRIBUTED MEMORY REQUIRED FOR THIS STEP IS MEMDDI=         1 MWORDS
 CREATING DISTRIBUTED STORAGE FOR [OCC OCC|OCC OCC] INTEGRALS
 DDI: Creating Array [0] - 171 x 171 = 29241 words.
 CREATING WORKSPACE OF SIZE VVOO
 DDI: Creating Array [1] - 171 x 171 = 29241 words.
 FOR   12 PROCESSORS, THE REPLICATED MEMORY NEEDED IS       58507 WORDS.

      DIRECT 4-INDEX TRANSFORMATION 
      SCHWARZ INEQUALITY TEST SKIPPED          0 INTEGRAL BLOCKS
 ----- FROZEN CORE ENERGY =       -92.4177074386
 ... END OF INTEGRAL TRANSFORMATION ...
 CPU     0: STEP CPU TIME=     0.00 TOTAL CPU TIME=        0.1 (    0.0 MIN)
 TOTAL WALL CLOCK TIME=        0.2 SECONDS, CPU UTILIZATION IS  33.33%

     --------------------------------------------------
          AMES LABORATORY DETERMINANTAL FULL CI
     PROGRAM WRITTEN BY JOE IVANIC AND KLAUS RUEDENBERG
     --------------------------------------------------

 THE NUMBER OF DETERMINANTS HAVING SPACE SYMMETRY A1 
 IN POINT GROUP C2V  WITH SZ=  0.0 IS        4777056
 THE DETERMINANT FULL CI REQUIRES       119865995 WORDS
 INITIAL CI VECTOR GUESS TIME  :          2.0
 INITIAL FULL CI ITERATION TIME:          5.6

 ITERATION      ENERGY           GRADIENT
     0     -108.7409331218     0.45969405
     1     -108.8422711595     0.18679635
     2     -108.8547863149     0.07040800
     3     -108.8563710547     0.03067454
     4     -108.8566704096     0.01538445
     5     -108.8567429538     0.00635789
     6     -108.8567541571     0.00224993
     7     -108.8567553207     0.00143012
     8     -108.8567558237     0.00102369
     9     -108.8567563622     0.00070722
    10     -108.8567565137     0.00044393
    11     -108.8567565623     0.00027745
    12     -108.8567565795     0.00016294
    13     -108.8567565836     0.00009702
    14     -108.8567565861     0.00005785
    15     -108.8567565872     0.00003995
    16     -108.8567565877     0.00002763
    17     -108.8567565880     0.00002259
    18     -108.8567565881     0.00001911
    19     -108.8567565882     0.00001354
    20     -108.8567565883     0.00001073
    21     -108.8567565883     0.00001012
    22     -108.8567565883     0.00000847
    23     -108.8567565883     0.00000753
    24     -108.8567565884     0.00001092
    25     -108.8567565884     0.00001214
    26     -108.8567565885     0.00001711
    27     -108.8567565887     0.00002947
    28     -108.8567565892     0.00004157
    29     -108.8567565904     0.00006526
    30     -108.8567565920     0.00008346
    31     -108.8567565940     0.00010115
    32     -108.8567566033     0.00019174
    33     -108.8567566328     0.00045403
    34     -108.8567597119     0.00493010
    35     -108.8567663875     0.00301397
    36     -108.8567688141     0.00213714
    37     -108.8567699328     0.00144114
    38     -108.8567707113     0.00116448
    39     -108.8567711521     0.00084242
    40     -108.8567712952     0.00050356
    41     -108.8567713639     0.00029705
    42     -108.8567713812     0.00024299
    43     -108.8567713916     0.00017846
    44     -108.8567714025     0.00012907
    45     -108.8567714071     0.00010443
    46     -108.8567714098     0.00005591
    47     -108.8567714106     0.00003352
    48     -108.8567714109     0.00002580
    49     -108.8567714111     0.00001693
    50     -108.8567714112     0.00001364
    51     -108.8567714112     0.00000987
    52     -108.8567714112     0.00000590
    53     -108.8567714113     0.00000358
    54     -108.8567714113     0.00000302
    55     -108.8567714113     0.00000217
    56     -108.8567714113     0.00000155
    57     -108.8567714113     0.00000126
    58     -108.8567714113     0.00000068

 CONVERGED STATE    1 ENERGY=     -108.8567714113 IN   58 ITERS

 ALL STATES CONVERGED.

 CI EIGENVECTORS WILL BE LABELED IN GROUP=C2V     
 PRINTING CI COEFFICIENTS LARGER THAN  0.050000

 STATE   1  ENERGY=      -108.8567714113  S=  0.00  SZ=  0.00  SPACE SYM=A1  

      ALPHA       |      BETA        | COEFFICIENT
------------------|------------------|------------
 1111100000000000 | 1111100000000000 |   0.2433018
 1110110000000000 | 1110110000000000 |  -0.2425870
 1111001000000000 | 1111001000000000 |  -0.2425870
 1110011000000000 | 1110011000000000 |   0.2418761
 1101100100000000 | 1101100100000000 |  -0.2379450
 1101001100000000 | 1101001100000000 |   0.2372576
 1100110100000000 | 1100110100000000 |   0.2372576
 1100011100000000 | 1100011100000000 |  -0.2365740
 1111010000000000 | 1110101000000000 |   0.1617234
 1110101000000000 | 1111010000000000 |   0.1617234
 1111000100000000 | 1101101000000000 |  -0.1601288
 1101101000000000 | 1111000100000000 |  -0.1601288
 1101110000000000 | 1110100100000000 |   0.1601288
 1110100100000000 | 1101110000000000 |   0.1601288
 1110010100000000 | 1100111000000000 |  -0.1596628
 1100111000000000 | 1110010100000000 |  -0.1596628
 1101011000000000 | 1110001100000000 |   0.1596628
 1110001100000000 | 1101011000000000 |   0.1596628
 1101010100000000 | 1100101100000000 |  -0.1581706
 1100101100000000 | 1101010100000000 |  -0.1581706
 1110110000000000 | 1111001000000000 |   0.0808630
 1111001000000000 | 1110110000000000 |   0.0808630
 1111100000000000 | 1110011000000000 |   0.0808605
 1110011000000000 | 1111100000000000 |   0.0808605
 1110110000000000 | 1101100100000000 |   0.0800755
 1101100100000000 | 1110110000000000 |   0.0800755
 1101100100000000 | 1111001000000000 |  -0.0800755
 1111001000000000 | 1101100100000000 |  -0.0800755
 1111100000000000 | 1100110100000000 |  -0.0800534
 1100110100000000 | 1111100000000000 |  -0.0800534
 1101001100000000 | 1111100000000000 |   0.0800534
 1111100000000000 | 1101001100000000 |   0.0800534
 1110011000000000 | 1101001100000000 |   0.0798425
 1101001100000000 | 1110011000000000 |   0.0798425
 1100110100000000 | 1110011000000000 |  -0.0798425
 1110011000000000 | 1100110100000000 |  -0.0798425
 1111001000000000 | 1100011100000000 |  -0.0798204
 1100011100000000 | 1111001000000000 |  -0.0798204
 1100011100000000 | 1110110000000000 |   0.0798204
 1110110000000000 | 1100011100000000 |   0.0798204
 1101001100000000 | 1100110100000000 |  -0.0790866
 1100110100000000 | 1101001100000000 |  -0.0790866
 1101100100000000 | 1100011100000000 |  -0.0790840
 1100011100000000 | 1101100100000000 |  -0.0790840
 ..... DONE WITH DETERMINANT CI COMPUTATION .....
 CPU     0: STEP CPU TIME=   150.47 TOTAL CPU TIME=      150.5 (    2.5 MIN)
 TOTAL WALL CLOCK TIME=      192.5 SECONDS, CPU UTILIZATION IS  78.19%

     ---------------------------
     ONE PARTICLE DENSITY MATRIX
     ---------------------------

 DENSITY MATRIX WILL BE SAVED FOR   1-TH STATE WITH S= 0.00

 CI EIGENSTATE   1 TOTAL ENERGY =     -108.8567714113

          NATURAL ORBITALS IN ATOMIC ORBITAL BASIS
          ----------------------------------------

                      1          2          3          4          5
                    2.0000     2.0000     1.9850     1.9849     1.0123
                     A1         A1         A1         A1         A1  
    1  N  1  S    0.706971   0.706974  -0.170994  -0.171088  -0.000292
    2  N  1  S   -0.000111  -0.000104   0.381421   0.382302   0.001641
    3  N  1  S    0.000906   0.000879   0.386697   0.386041  -0.000373
    4  N  1  X    0.000000   0.000000   0.000000   0.000000   0.000000
    5  N  1  Y    0.000000   0.000000   0.000000   0.000000   0.000000
    6  N  1  Z    0.000081   0.000048  -0.000731   0.000728  -0.556498
    7  N  1  X    0.000000   0.000000   0.000000   0.000000   0.000000
    8  N  1  Y    0.000000   0.000000   0.000000   0.000000   0.000000
    9  N  1  Z   -0.000019  -0.000037   0.001017  -0.001052  -0.229750
   10  N  2  S    0.706971  -0.706974  -0.170994   0.171088  -0.000292
   11  N  2  S   -0.000111   0.000104   0.381421  -0.382302   0.001641
   12  N  2  S    0.000906  -0.000879   0.386697  -0.386041  -0.000373
   13  N  2  X    0.000000   0.000000   0.000000   0.000000   0.000000
   14  N  2  Y    0.000000   0.000000   0.000000   0.000000   0.000000
   15  N  2  Z   -0.000081   0.000048   0.000731   0.000728   0.556498
   16  N  2  X    0.000000   0.000000   0.000000   0.000000   0.000000
   17  N  2  Y    0.000000   0.000000   0.000000   0.000000   0.000000
   18  N  2  Z    0.000019  -0.000037  -0.001017  -0.001052   0.229750

                      6          7          8          9         10
                    0.9975     0.9975     0.9935     0.9935     0.9787
                     B1         B2         B1         B2         A1  
    1  N  1  S    0.000000   0.000000   0.000000   0.000000  -0.000363
    2  N  1  S    0.000000   0.000000   0.000000   0.000000   0.001556
    3  N  1  S    0.000000   0.000000   0.000000   0.000000  -0.000320
    4  N  1  X    0.559550   0.000000  -0.560473   0.000000   0.000000
    5  N  1  Y    0.000000   0.559550   0.000000  -0.560473   0.000000
    6  N  1  Z    0.000000   0.000000   0.000000   0.000000   0.563445
    7  N  1  X    0.228099   0.000000  -0.227372   0.000000   0.000000
    8  N  1  Y    0.000000   0.228099   0.000000  -0.227372   0.000000
    9  N  1  Z    0.000000   0.000000   0.000000   0.000000   0.225728
   10  N  2  S    0.000000   0.000000   0.000000   0.000000   0.000363
   11  N  2  S    0.000000   0.000000   0.000000   0.000000  -0.001556
   12  N  2  S    0.000000   0.000000   0.000000   0.000000   0.000320
   13  N  2  X    0.559550   0.000000   0.560473   0.000000   0.000000
   14  N  2  Y    0.000000   0.559550   0.000000   0.560473   0.000000
   15  N  2  Z    0.000000   0.000000   0.000000   0.000000   0.563445
   16  N  2  X    0.228099   0.000000   0.227372   0.000000   0.000000
   17  N  2  Y    0.000000   0.228099   0.000000   0.227372   0.000000
   18  N  2  Z    0.000000   0.000000   0.000000   0.000000   0.225728

                     11         12         13         14         15
                    0.0109     0.0108     0.0062     0.0059     0.0059
                     A1         A1         A1         B1         B2  
    1  N  1  S   -0.095431   0.095285  -0.003984   0.000000   0.000000
    2  N  1  S    1.117972  -1.119712   0.056983   0.000000   0.000000
    3  N  1  S   -1.091810   1.095182  -0.060426   0.000000   0.000000
    4  N  1  X    0.000000   0.000000   0.000000  -0.615263   0.000000
    5  N  1  Y    0.000000   0.000000   0.000000   0.000000  -0.615263
    6  N  1  Z    0.027568   0.023931  -0.610915   0.000000   0.000000
    7  N  1  X    0.000000   0.000000   0.000000   0.797927   0.000000
    8  N  1  Y    0.000000   0.000000   0.000000   0.000000   0.797927
    9  N  1  Z   -0.030655  -0.027430   0.776123   0.000000   0.000000
   10  N  2  S   -0.095431  -0.095285  -0.003984   0.000000   0.000000
   11  N  2  S    1.117972   1.119712   0.056983   0.000000   0.000000
   12  N  2  S   -1.091810  -1.095182  -0.060426   0.000000   0.000000
   13  N  2  X    0.000000   0.000000   0.000000  -0.615263   0.000000
   14  N  2  Y    0.000000   0.000000   0.000000   0.000000  -0.615263
   15  N  2  Z   -0.027568   0.023931   0.610915   0.000000   0.000000
   16  N  2  X    0.000000   0.000000   0.000000   0.797927   0.000000
   17  N  2  Y    0.000000   0.000000   0.000000   0.000000   0.797927
   18  N  2  Z    0.030655  -0.027430  -0.776123   0.000000   0.000000

                     16         17         18
                    0.0059     0.0059     0.0055
                     B1         B2         A1  
    1  N  1  S    0.000000   0.000000   0.003468
    2  N  1  S    0.000000   0.000000  -0.050685
    3  N  1  S    0.000000   0.000000   0.054569
    4  N  1  X    0.616089   0.000000   0.000000
    5  N  1  Y    0.000000   0.616089   0.000000
    6  N  1  Z    0.000000   0.000000  -0.620298
    7  N  1  X   -0.803094   0.000000   0.000000
    8  N  1  Y    0.000000  -0.803094   0.000000
    9  N  1  Z    0.000000   0.000000   0.825934
   10  N  2  S    0.000000   0.000000  -0.003468
   11  N  2  S    0.000000   0.000000   0.050685
   12  N  2  S    0.000000   0.000000  -0.054569
   13  N  2  X   -0.616089   0.000000   0.000000
   14  N  2  Y    0.000000  -0.616089   0.000000
   15  N  2  Z    0.000000   0.000000  -0.620298
   16  N  2  X    0.803094   0.000000   0.000000
   17  N  2  Y    0.000000   0.803094   0.000000
   18  N  2  Z    0.000000   0.000000   0.825934
 ..... DONE WITH ONE PARTICLE DENSITY MATRIX .....
 CPU     0: STEP CPU TIME=     0.99 TOTAL CPU TIME=      151.5 (    2.5 MIN)
 TOTAL WALL CLOCK TIME=      193.5 SECONDS, CPU UTILIZATION IS  78.30%

     --------------------------------------------------------
     ALDET CI PROPERTIES...FOR THE WAVEFUNCTION OF STATE    1
               USING THE EXPECTATION VALUE DENSITY
     --------------------------------------------------------

          -----------------
          ENERGY COMPONENTS
          -----------------

         WAVEFUNCTION NORMALIZATION =       1.0000000000

                ONE ELECTRON ENERGY =    -159.7310361396
                TWO ELECTRON ENERGY =      44.8441053765
           NUCLEAR REPULSION ENERGY =       6.0301593518
                                      ------------------
                       TOTAL ENERGY =    -108.8567714113

 ELECTRON-ELECTRON POTENTIAL ENERGY =      44.8441053765
  NUCLEUS-ELECTRON POTENTIAL ENERGY =    -268.4428831090
   NUCLEUS-NUCLEUS POTENTIAL ENERGY =       6.0301593518
                                      ------------------
             TOTAL POTENTIAL ENERGY =    -217.5686183807
               TOTAL KINETIC ENERGY =     108.7118469694
                 VIRIAL RATIO (V/T) =       2.0013331062

          ---------------------------------------
          MULLIKEN AND LOWDIN POPULATION ANALYSES
          ---------------------------------------

               ----- POPULATIONS IN EACH AO -----
                             MULLIKEN      LOWDIN
              1  N  1  S      2.00012     1.99634
              2  N  1  S      0.98049     0.98290
              3  N  1  S      1.01515     1.01652
              4  N  1  X      0.75973     0.72078
              5  N  1  Y      0.75973     0.72078
              6  N  1  Z      0.75955     0.72059
              7  N  1  X      0.24167     0.28063
              8  N  1  Y      0.24167     0.28063
              9  N  1  Z      0.24188     0.28085
             10  N  2  S      2.00012     1.99634
             11  N  2  S      0.98049     0.98290
             12  N  2  S      1.01515     1.01652
             13  N  2  X      0.75973     0.72078
             14  N  2  Y      0.75973     0.72078
             15  N  2  Z      0.75955     0.72059
             16  N  2  X      0.24167     0.28063
             17  N  2  Y      0.24167     0.28063
             18  N  2  Z      0.24188     0.28085

          ----- MULLIKEN ATOMIC OVERLAP POPULATIONS -----
          (OFF-DIAGONAL ELEMENTS NEED TO BE MULTIPLIED BY 2)

             1           2

    1    6.9997983
    2    0.0002017   6.9997983

          TOTAL MULLIKEN AND LOWDIN ATOMIC POPULATIONS
       ATOM         MULL.POP.    CHARGE          LOW.POP.     CHARGE
    1 N             7.000000    0.000000         7.000000    0.000000
    2 N             7.000000    0.000000         7.000000    0.000000

          ---------------------
          ELECTROSTATIC MOMENTS
          ---------------------

 POINT   1           X           Y           Z (BOHR)    CHARGE
                 0.000000    0.000000    4.062911        0.00 (A.U.)
         DX          DY          DZ         /D/  (DEBYE)
     0.000000    0.000000    0.000000    0.000000
 ...... END OF PROPERTY EVALUATION ......
 CPU     0: STEP CPU TIME=     0.01 TOTAL CPU TIME=      151.5 (    2.5 MIN)
 TOTAL WALL CLOCK TIME=      194.0 SECONDS, CPU UTILIZATION IS  78.12%
             119866895  WORDS OF DYNAMIC MEMORY USED
 EXECUTION OF GAMESS TERMINATED NORMALLY Thu Jan 17 19:04:39 2019
 DDI: 305760 bytes (0.3 MB / 0 MWords) used by master data server.

 ----------------------------------------
 CPU timing information for all processes
 ========================================
 0: 142.00 + 9.684 = 151.684
 1: 141.576 + 12.260 = 153.836
 2: 141.680 + 10.840 = 152.520
 3: 141.128 + 11.368 = 152.496
 4: 140.920 + 11.776 = 152.696
 5: 142.68 + 10.128 = 152.196
 6: 139.628 + 10.368 = 149.996
 7: 141.596 + 9.892 = 151.488
 8: 140.908 + 9.896 = 150.804
 9: 139.940 + 10.476 = 150.416
 10: 141.980 + 9.324 = 151.304
 11: 140.940 + 9.556 = 150.496
 12: 0.556 + 5.868 = 6.424
 13: 0.04 + 0.04 = 0.08
 14: 0.04 + 0.04 = 0.08
 15: 0.04 + 0.04 = 0.08
 16: 0.08 + 0.00 = 0.08
 17: 0.04 + 0.04 = 0.08
 18: 0.00 + 0.08 = 0.08
 19: 0.04 + 0.04 = 0.08
 20: 0.00 + 0.04 = 0.04
 21: 0.08 + 0.00 = 0.08
 22: 0.08 + 0.00 = 0.08
 23: 0.00 + 0.04 = 0.04
 ----------------------------------------
 ddikick.x: exited gracefully.
unset echo
----- accounting info -----
Files used on the master node localhost were:
-rw-rw-r-- 1 maho maho    13429 Jan 17 19:04 ./N2.SV/4.3/N2.SV.fullCI.4.3.gamess.dat
-rw------- 1 maho maho     1813 Jan 17 19:01 ./N2.SV/4.3/N2.SV.fullCI.4.3.gamess.F05
-rw-rw-r-- 1 maho maho   180016 Jan 17 19:01 ./N2.SV/4.3/N2.SV.fullCI.4.3.gamess.F08
-rw-rw-r-- 1 maho maho     1376 Jan 17 19:01 ./N2.SV/4.3/N2.SV.fullCI.4.3.gamess.F09
-rw-rw-r-- 1 maho maho  1865040 Jan 17 19:04 ./N2.SV/4.3/N2.SV.fullCI.4.3.gamess.F10
-rw-rw-r-- 1 maho maho 38216480 Jan 17 19:04 ./N2.SV/4.3/N2.SV.fullCI.4.3.gamess.F12
-rw------- 1 maho maho     1813 Jan 17 19:01 ./N2.SV/4.3/N2.SV.fullCI.4.3.gamess.inp
-rw-rw-r-- 1 maho maho    49655 Jan 17 19:04 ./N2.SV/4.3/N2.SV.fullCI.4.3.gamess.log
ls: No match.
ls: No match.
ls: No match.
Thu Jan 17 19:04:43 JST 2019
0.0u 0.0s 3:17.66 0.0% 0+0k 0+8io 0pf+0w
