----- GAMESS execution script 'rungms' -----
This job is running on host bach.ad64.riken.go.jp
under operating system Darwin at 2019年 1月17日 木曜日 17時50分20秒 JST
Available scratch disk space (Kbyte units) at beginning of the job is
Filesystem   1024-blocks       Used Available Capacity iused      ifree %iused  Mounted on
/dev/disk2s2  1953178672 1144744828 808433844    59%  984416 4293982863    0%   /Volumes/Users
GAMESS temporary binary files will be written to ./
GAMESS supplementary output files will be written to ./
Copying input file LiH.631g/3.5/LiH.631g.fullCI.3.5.gamess.inp to your run's scratch directory...
cp LiH.631g/3.5/LiH.631g.fullCI.3.5.gamess.inp .//LiH.631g/3.5/LiH.631g.fullCI.3.5.gamess.F05
unset echo
/Volumes/Users/maho/bin/gamess//ddikick.x /Volumes/Users/maho/bin/gamess//gamess.00.x LiH.631g/3.5/LiH.631g.fullCI.3.5.gamess -ddi 1 1 bach.ad64.riken.go.jp -scr ./

 Distributed Data Interface kickoff program.
 Initiating 1 compute processes on 1 nodes to run the following command:
 /Volumes/Users/maho/bin/gamess//gamess.00.x LiH.631g/3.5/LiH.631g.fullCI.3.5.gamess 

          ******************************************************
          *         GAMESS VERSION = 18 AUG 2016 (R1)          *
          *             FROM IOWA STATE UNIVERSITY             *
          * M.W.SCHMIDT, K.K.BALDRIDGE, J.A.BOATZ, S.T.ELBERT, *
          *   M.S.GORDON, J.H.JENSEN, S.KOSEKI, N.MATSUNAGA,   *
          *          K.A.NGUYEN, S.J.SU, T.L.WINDUS,           *
          *       TOGETHER WITH M.DUPUIS, J.A.MONTGOMERY       *
          *         J.COMPUT.CHEM.  14, 1347-1363(1993)        *
          **************** 64 BIT APPLE VERSION ****************

  SINCE 1993, STUDENTS AND POSTDOCS WORKING AT IOWA STATE UNIVERSITY
  AND ALSO IN THEIR VARIOUS JOBS AFTER LEAVING ISU HAVE MADE IMPORTANT
  CONTRIBUTIONS TO THE CODE:
     IVANA ADAMOVIC, CHRISTINE AIKENS, YURI ALEXEEV, POOJA ARORA,
     ANDREY ASADCHEV, ROB BELL, PRADIPTA BANDYOPADHYAY, JONATHAN BENTZ,
     BRETT BODE, KURT BRORSEN, CALEB CARLIN, GALINA CHABAN, WEI CHEN,
     CHEOL HO CHOI, PAUL DAY, ALBERT DEFUSCO, NUWAN DESILVA, TIM DUDLEY,
     DMITRI FEDOROV, GRAHAM FLETCHER, MARK FREITAG, KURT GLAESEMANN,
     DAN KEMP, GRANT MERRILL, NORIYUKI MINEZAWA, JONATHAN MULLIN,
     TAKESHI NAGATA, SEAN NEDD, HEATHER NETZLOFF, BOSILJKA NJEGIC, RYAN OLSON,
     MIKE PAK, SPENCER PRUITT, LUKE ROSKOP, JIM SHOEMAKER, LYUDMILA SLIPCHENKO,
     TONY SMITH, SAROM SOK LEANG, JIE SONG, TETSUYA TAKETSUGU, SIMON WEBB,
     PENG XU, SOOHAENG YOO, FEDERICO ZAHARIEV

  ADDITIONAL CODE HAS BEEN PROVIDED BY COLLABORATORS IN OTHER GROUPS:
     IOWA STATE UNIVERSITY:
          JOE IVANIC, AARON WEST, LAIMUTIS BYTAUTAS, KLAUS RUEDENBERG
     UNIVERSITY OF TOKYO: KIMIHIKO HIRAO, TAKAHITO NAKAJIMA,
          TAKAO TSUNEDA, MUNEAKI KAMIYA, SUSUMU YANAGISAWA,
          KIYOSHI YAGI, MAHITO CHIBA, SEIKEN TOKURA, NAOAKI KAWAKAMI
     UNIVERSITY OF AARHUS: FRANK JENSEN
     UNIVERSITY OF IOWA: VISVALDAS KAIRYS, HUI LI
     NATIONAL INST. OF STANDARDS AND TECHNOLOGY: WALT STEVENS, DAVID GARMER
     UNIVERSITY OF PISA: BENEDETTA MENNUCCI, JACOPO TOMASI
     UNIVERSITY OF MEMPHIS: HENRY KURTZ, PRAKASHAN KORAMBATH
     UNIVERSITY OF ALBERTA: TOBY ZENG, MARIUSZ KLOBUKOWSKI
     UNIVERSITY OF NEW ENGLAND: MARK SPACKMAN
     MIE UNIVERSITY: HIROAKI UMEDA
     NAT. INST. OF ADVANCED INDUSTRIAL SCIENCE AND TECHNOLOGY: KAZUO KITAURA
     MICHIGAN STATE UNIVERSITY:
          KAROL KOWALSKI, MARTA WLOCH, JEFFREY GOUR, JESSE LUTZ,
          WEI LI, PIOTR PIECUCH
     UNIVERSITY OF SILESIA: MONIKA MUSIAL, STANISLAW KUCHARSKI
     FACULTES UNIVERSITAIRES NOTRE-DAME DE LA PAIX:
          OLIVIER QUINET, BENOIT CHAMPAGNE
     UNIVERSITY OF CALIFORNIA - SANTA BARBARA: BERNARD KIRTMAN
     INSTITUTE FOR MOLECULAR SCIENCE:
          KAZUYA ISHIMURA, MICHIO KATOUDA, AND SHIGERU NAGASE
     UNIVERSITY OF NOTRE DAME: ANNA POMOGAEVA, DAN CHIPMAN
     KYUSHU UNIVERSITY:
          HARUYUKI NAKANO,
          FENG LONG GU, JACEK KORCHOWIEC, MARCIN MAKOWSKI, AND YURIKO AOKI,
          HIROTOSHI MORI AND EISAKU MIYOSHI
     PENNSYLVANIA STATE UNIVERSITY:
          TZVETELIN IORDANOV, CHET SWALINA, JONATHAN SKONE,
          SHARON HAMMES-SCHIFFER
     WASEDA UNIVERSITY:
          MASATO KOBAYASHI, TOMOKO AKAMA, TSUGUKI TOUMA,
          TAKESHI YOSHIKAWA, YASUHIRO IKABATA, JUNJI SEINO,
          YUYA NAKAJIMA, HIROMI NAKAI
     NANJING UNIVERSITY: SHUHUA LI
     UNIVERSITY OF NEBRASKA:
          PEIFENG SU, DEJUN SI, NANDUN THELLAMUREGE, YALI WANG, HUI LI
     UNIVERSITY OF ZURICH: ROBERTO PEVERATI, KIM BALDRIDGE
     N. COPERNICUS UNIVERSITY AND JACKSON STATE UNIVERSITY:
          MARIA BARYSZ
     UNIVERSITY OF COPENHAGEN: Jimmy Kromann, CASPER STEINMANN
     TOKYO INSTITUTE OF TECHNOLOGY: HIROYA NAKATA
     NAGOYA UNIVERSITY: YOSHIO NISHIMOTO, STEPHAN IRLE
     MOSCOW STATE UNIVERSITY: VLADIMIR MIRONOV

 EXECUTION OF GAMESS BEGUN Thu Jan 17 17:50:20 2019

            ECHO OF THE FIRST FEW INPUT CARDS -
 INPUT CARD> $CONTRL SCFTYP=RHF CITYP=ALDET $END                                            
 INPUT CARD> $GUESS  GUESS=HUCKEL $END                                                      
 INPUT CARD> $BASIS GBASIS=N31 NGAUSS=6 NDFUNC=1 NPFUNC=1 $END                              
 INPUT CARD> $CIDET SZ=0 GROUP=C2V NCORE=0 NACT=20 NELS=4 $END                              
 INPUT CARD> $DATA                                                                          
 INPUT CARD>LiH...HF...6-31G* basis                                                         
 INPUT CARD>Cnv   2                                                                         
 INPUT CARD>                                                                                
 INPUT CARD>Li    3.0    0.0      0.0     0.0                                               
 INPUT CARD>H     1.0    0.0      0.0     3.5                                               
 INPUT CARD> $END                                                                           
    1000000 WORDS OF MEMORY AVAILABLE

     BASIS OPTIONS
     -------------
     GBASIS=N31          IGAUSS=       6      POLAR=POPN31  
     NDFUNC=       1     NFFUNC=       0     DIFFSP=       F
     NPFUNC=       1      DIFFS=       F     BASNAM=        


     RUN TITLE
     ---------
 LiH...HF...6-31G* basis                                                         

 THE POINT GROUP OF THE MOLECULE IS CNV     
 THE ORDER OF THE PRINCIPAL AXIS IS     2

 ATOM      ATOMIC                      COORDINATES (BOHR)
           CHARGE         X                   Y                   Z
 LI          3.0     0.0000000000        0.0000000000        0.0000000000
 H           1.0     0.0000000000        0.0000000000        6.6140409570

          INTERNUCLEAR DISTANCES (ANGS.)
          ------------------------------

                1 LI         2 H     

   1 LI      0.0000000    3.5000000  
   2 H       3.5000000    0.0000000  

  * ... LESS THAN  3.000


     ATOMIC BASIS SET
     ----------------
 THE CONTRACTED PRIMITIVE FUNCTIONS HAVE BEEN UNNORMALIZED
 THE CONTRACTED BASIS FUNCTIONS ARE NOW NORMALIZED TO UNITY

  SHELL TYPE  PRIMITIVE        EXPONENT          CONTRACTION COEFFICIENT(S)

 LI        

      1   S       1           642.4189150    0.002142607810
      1   S       2            96.7985153    0.016208871501
      1   S       3            22.0911212    0.077315572504
      1   S       4             6.2010702    0.245786052013
      1   S       5             1.9351177    0.470189004025
      1   S       6             0.6367358    0.345470845019

      2   L       7             2.3249184   -0.035091745735    0.008941508043
      2   L       8             0.6324304   -0.191232843103    0.141009464046
      2   L       9             0.0790534    1.083987794916    0.945363695309

      3   L      10             0.0359620    1.000000000000    1.000000000000

      4   D      11             0.2000000    1.000000000000

 H         

      5   S      12            18.7311370    0.033494604338
      5   S      13             2.8253944    0.234726953484
      5   S      14             0.6401217    0.813757326146

      6   S      15             0.1612778    1.000000000000

      7   P      16             1.1000000    1.000000000000

 TOTAL NUMBER OF BASIS SET SHELLS             =    7
 NUMBER OF CARTESIAN GAUSSIAN BASIS FUNCTIONS =   20
 NUMBER OF ELECTRONS                          =    4
 CHARGE OF MOLECULE                           =    0
 SPIN MULTIPLICITY                            =    1
 NUMBER OF OCCUPIED ORBITALS (ALPHA)          =    2
 NUMBER OF OCCUPIED ORBITALS (BETA )          =    2
 TOTAL NUMBER OF ATOMS                        =    2
 THE NUCLEAR REPULSION ENERGY IS        0.4535804993

 THIS MOLECULE IS RECOGNIZED AS BEING LINEAR,
 ORBITAL LZ DEGENERACY TOLERANCE ETOLLZ= 1.00E-06

     $CONTRL OPTIONS
     ---------------
 SCFTYP=RHF          RUNTYP=ENERGY       EXETYP=RUN     
 MPLEVL=       0     CITYP =ALDET        CCTYP =NONE         VBTYP =NONE    
 DFTTYP=NONE         TDDFT =NONE    
 MULT  =       1     ICHARG=       0     NZVAR =       0     COORD =UNIQUE  
 PP    =NONE         RELWFN=NONE         LOCAL =NONE         NUMGRD=       F
 ISPHER=      -1     NOSYM =       0     MAXIT =      30     UNITS =ANGS    
 PLTORB=       F     MOLPLT=       F     AIMPAC=       F     FRIEND=        
 NPRINT=       7     IREST =       0     GEOM  =INPUT   
 NORMF =       0     NORMP =       0     ITOL  =      20     ICUT  =       9
 INTTYP=BEST         GRDTYP=BEST         QMTTOL= 1.0E-06

     $SYSTEM OPTIONS
     ---------------
  REPLICATED MEMORY=     1000000 WORDS (ON EVERY NODE).
 DISTRIBUTED MEMDDI=           0 MILLION WORDS IN AGGREGATE,
 MEMDDI DISTRIBUTED OVER   1 PROCESSORS IS           0 WORDS/PROCESSOR.
 TOTAL MEMORY REQUESTED ON EACH PROCESSOR=     1000000 WORDS.
 TIMLIM=      525600.00 MINUTES, OR     365.0 DAYS.
 PARALL= F  BALTYP=  DLB     KDIAG=    0  COREFL= F
 MXSEQ2=     300 MXSEQ3=     150  mem10=         0

          ----------------
          PROPERTIES INPUT
          ----------------

     MOMENTS            FIELD           POTENTIAL          DENSITY
 IEMOM =       1   IEFLD =       0   IEPOT =       0   IEDEN =       0
 WHERE =COMASS     WHERE =NUCLEI     WHERE =NUCLEI     WHERE =NUCLEI  
 OUTPUT=BOTH       OUTPUT=BOTH       OUTPUT=BOTH       OUTPUT=BOTH    
 IEMINT=       0   IEFINT=       0                     IEDINT=       0
                                                       MORB  =       0
          EXTRAPOLATION IN EFFECT
          SOSCF IN EFFECT
 ORBITAL PRINTING OPTION: NPREO=     1    20     2     1

     -------------------------------
     INTEGRAL TRANSFORMATION OPTIONS
     -------------------------------
     NWORD  =            0
     CUTOFF = 1.0E-09     MPTRAN =       0
     DIRTRF =       F     AOINTS =DUP     

          ----------------------
          INTEGRAL INPUT OPTIONS
          ----------------------
 NOPK  =       1 NORDER=       0 SCHWRZ=       F

     ------------------------------------------
     THE POINT GROUP IS CNV, NAXIS= 2, ORDER= 4
     ------------------------------------------

     DIMENSIONS OF THE SYMMETRY SUBSPACES ARE
 A1  =   11     A2  =    1     B1  =    4     B2  =    4

 ..... DONE SETTING UP THE RUN .....
 STEP CPU TIME =     0.00 TOTAL CPU TIME =        0.0 (    0.0 MIN)
 TOTAL WALL CLOCK TIME=        0.0 SECONDS, CPU UTILIZATION IS   0.00%

          ********************
          1 ELECTRON INTEGRALS
          ********************
 ...... END OF ONE-ELECTRON INTEGRALS ......
 STEP CPU TIME =     0.00 TOTAL CPU TIME =        0.0 (    0.0 MIN)
 TOTAL WALL CLOCK TIME=        0.0 SECONDS, CPU UTILIZATION IS   0.00%

          -------------
          GUESS OPTIONS
          -------------
          GUESS =HUCKEL            NORB  =       0          NORDER=       0
          MIX   =       F          PRTMO =       F          PUNMO =       F
          TOLZ  = 1.0E-08          TOLE  = 1.0E-05
          SYMDEN=       F          PURIFY=       F

 INITIAL GUESS ORBITALS GENERATED BY HUCKEL   ROUTINE.
 HUCKEL GUESS REQUIRES      4469 WORDS.

 SYMMETRIES FOR INITIAL GUESS ORBITALS FOLLOW.   BOTH SET(S).
     2 ORBITALS ARE OCCUPIED (    1 CORE ORBITALS).
     2=A1       3=A1       4=A1       5=A1       6=A1       7=A1       8=A1  
     9=A1      10=A1      11=A1      12=A2  
 ...... END OF INITIAL ORBITAL SELECTION ......
 STEP CPU TIME =     0.00 TOTAL CPU TIME =        0.0 (    0.0 MIN)
 TOTAL WALL CLOCK TIME=        0.0 SECONDS, CPU UTILIZATION IS   0.00%

                    ----------------------
                    AO INTEGRAL TECHNOLOGY
                    ----------------------
     S,P,L SHELL ROTATED AXIS INTEGRALS, REPROGRAMMED BY
        KAZUYA ISHIMURA (IMS) AND JOSE SIERRA (SYNSTAR).
     S,P,D,L SHELL ROTATED AXIS INTEGRALS PROGRAMMED BY
        KAZUYA ISHIMURA (INSTITUTE FOR MOLECULAR SCIENCE).
     S,P,D,F,G SHELL TO TOTAL QUARTET ANGULAR MOMENTUM SUM 5,
        ERIC PROGRAM BY GRAHAM FLETCHER (ELORET AND NASA ADVANCED
        SUPERCOMPUTING DIVISION, AMES RESEARCH CENTER).
     S,P,D,F,G,L SHELL GENERAL RYS QUADRATURE PROGRAMMED BY
        MICHEL DUPUIS (PACIFIC NORTHWEST NATIONAL LABORATORY).

          --------------------
          2 ELECTRON INTEGRALS
          --------------------

 THE -PK- OPTION IS OFF, THE INTEGRALS ARE NOT IN SUPERMATRIX FORM.
 STORING   15000 INTEGRALS/RECORD ON DISK, USING 12 BYTES/INTEGRAL.
 TWO ELECTRON INTEGRAL EVALUATION REQUIRES   90424 WORDS OF MEMORY.
 II,JST,KST,LST =  1  1  1  1 NREC =         1 INTLOC =    1
 II,JST,KST,LST =  2  1  1  1 NREC =         1 INTLOC =    2
 II,JST,KST,LST =  3  1  1  1 NREC =         1 INTLOC =   34
 II,JST,KST,LST =  4  1  1  1 NREC =         1 INTLOC =  214
 II,JST,KST,LST =  5  1  1  1 NREC =         1 INTLOC = 1189
 II,JST,KST,LST =  6  1  1  1 NREC =         1 INTLOC = 1863
 II,JST,KST,LST =  7  1  1  1 NREC =         1 INTLOC = 2708
 TOTAL NUMBER OF NONZERO TWO-ELECTRON INTEGRALS =                5458
          1 INTEGRAL RECORDS WERE STORED ON DISK FILE  8.
  ...... END OF TWO-ELECTRON INTEGRALS .....
 STEP CPU TIME =     0.02 TOTAL CPU TIME =        0.0 (    0.0 MIN)
 TOTAL WALL CLOCK TIME=        0.0 SECONDS, CPU UTILIZATION IS  50.00%

          --------------------------
                 RHF SCF CALCULATION
          --------------------------

     NUCLEAR ENERGY =         0.4535804993
     MAXIT =   30     NPUNCH=    2
     EXTRAP=T  DAMP=F  SHIFT=F  RSTRCT=F  DIIS=F  DEM=F  SOSCF=T
     DENSITY MATRIX CONV=  1.00E-06
     SOSCF WILL OPTIMIZE      36 ORBITAL ROTATIONS, SOGTOL=   0.250
     MEMORY REQUIRED FOR RHF ITERS=     33224 WORDS.

 ITER EX DEM     TOTAL ENERGY        E CHANGE  DENSITY CHANGE     ORB. GRAD
   1  0  0       -7.5684795367    -7.5684795367   1.193722217   0.000000000
          ---------------START SECOND ORDER SCF---------------
 SOSCF IS SCALING ROTATION ANGLE MATRIX, SQCDF=    0.332139
   2  1  0       -7.5623298195     0.0061497172   0.653206944   0.131175182
   3  2  0       -7.8670783217    -0.3047485022   0.362046993   0.038792762
   4  3  0       -7.8705338662    -0.0034555445   0.131296133   0.027041809
   5  4  0       -7.8811847027    -0.0106508365   0.040115940   0.004220371
   6  5  0       -7.8816114369    -0.0004267342   0.013219267   0.002457283
   7  6  0       -7.8816767855    -0.0000653486   0.001888921   0.000302157
   8  7  0       -7.8816806823    -0.0000038968   0.000488079   0.000077844
   9  8  0       -7.8816808684    -0.0000001861   0.000085833   0.000016170
  10  9  0       -7.8816808690    -0.0000000006   0.000014091   0.000003501
  11 10  0       -7.8816808690    -0.0000000000   0.000001303   0.000000129
  12 11  0       -7.8816808690    -0.0000000000   0.000000024   0.000000018

          -----------------
          DENSITY CONVERGED
          -----------------
     TIME TO FORM FOCK OPERATORS=       0.0 SECONDS (       0.0 SEC/ITER)
     TIME TO SOLVE SCF EQUATIONS=       0.0 SECONDS (       0.0 SEC/ITER)

 FINAL RHF ENERGY IS       -7.8816808690 AFTER  12 ITERATIONS

 LZ VALUE ANALYSIS FOR THE MOS
 ----------------------------------------
 MO     1 (    1) HAS LZ(WEIGHT)= 0.00(100.0%) 
 MO     2 (    2) HAS LZ(WEIGHT)= 0.00(100.0%) 
 MO     3 (    3) HAS LZ(WEIGHT)= 0.00(100.0%) 
 MO     4 (    4) HAS LZ(WEIGHT)=-1.00( 50.0%)  1.00( 50.0%) 
 MO     5 (    4) HAS LZ(WEIGHT)=-1.00( 50.0%)  1.00( 50.0%) 
 MO     6 (    5) HAS LZ(WEIGHT)= 0.00(100.0%) 
 MO     7 (    6) HAS LZ(WEIGHT)= 0.00(100.0%) 
 MO     8 (    7) HAS LZ(WEIGHT)=-1.00( 50.0%)  1.00( 50.0%) 
 MO     9 (    7) HAS LZ(WEIGHT)=-1.00( 50.0%)  1.00( 50.0%) 
 MO    10 (    8) HAS LZ(WEIGHT)= 0.00(100.0%) 
 MO    11 (    9) HAS LZ(WEIGHT)=-2.00( 50.0%)  2.00( 50.0%) 
 MO    12 (    9) HAS LZ(WEIGHT)=-2.00( 50.0%)  2.00( 50.0%) 
 MO    13 (   10) HAS LZ(WEIGHT)=-1.00( 50.0%)  1.00( 50.0%) 
 MO    14 (   10) HAS LZ(WEIGHT)=-1.00( 50.0%)  1.00( 50.0%) 
 MO    15 (   11) HAS LZ(WEIGHT)= 0.00(100.0%) 
 MO    16 (   12) HAS LZ(WEIGHT)= 0.00(100.0%) 
 MO    17 (   13) HAS LZ(WEIGHT)= 0.00(100.0%) 
 MO    18 (   14) HAS LZ(WEIGHT)=-1.00( 50.0%)  1.00( 50.0%) 
 MO    19 (   14) HAS LZ(WEIGHT)=-1.00( 50.0%)  1.00( 50.0%) 
 MO    20 (   15) HAS LZ(WEIGHT)= 0.00(100.0%) 

          ------------
          EIGENVECTORS
          ------------

                      1          2          3          4          5
                   -2.5671    -0.2105    -0.0339     0.0322     0.0322
                     A1         A1         A1         B2         B1  
    1  LI 1  S    0.998754  -0.085904  -0.159415  -0.000000  -0.000000
    2  LI 1  S   -0.012163  -0.040689  -0.000602  -0.000000  -0.000000
    3  LI 1  X    0.000000   0.000000  -0.000000  -0.000000   0.195777
    4  LI 1  Y    0.000000   0.000000  -0.000000   0.195777  -0.000000
    5  LI 1  Z   -0.003871   0.042492  -0.134408  -0.000000  -0.000000
    6  LI 1  S    0.001912   0.426619   0.762755  -0.000000  -0.000000
    7  LI 1  X    0.000000   0.000000  -0.000000  -0.000000   0.835527
    8  LI 1  Y    0.000000   0.000000  -0.000000   0.835527  -0.000000
    9  LI 1  Z    0.002632   0.196479  -0.381540  -0.000000  -0.000000
   10  LI 1 XX    0.008808   0.020590   0.040039  -0.000000  -0.000000
   11  LI 1 YY    0.008808   0.020590   0.040039  -0.000000  -0.000000
   12  LI 1 ZZ    0.008590   0.048160   0.041245  -0.000000  -0.000000
   13  LI 1 XY    0.000000   0.000000  -0.000000  -0.000000  -0.000000
   14  LI 1 XZ    0.000000   0.000000  -0.000000  -0.000000  -0.033429
   15  LI 1 YZ    0.000000   0.000000  -0.000000  -0.033429  -0.000000
   16  H  2  S    0.000077   0.244211  -0.087106  -0.000000  -0.000000
   17  H  2  S   -0.000089   0.553996  -0.188785  -0.000000  -0.000000
   18  H  2  X    0.000000   0.000000  -0.000000  -0.000000   0.001648
   19  H  2  Y    0.000000   0.000000  -0.000000   0.001648  -0.000000
   20  H  2  Z   -0.000070  -0.001970  -0.001218  -0.000000  -0.000000

                      6          7          8          9         10
                    0.0900     0.1571     0.1763     0.1763     0.2226
                     A1         A1         B1         B2         A1  
    1  LI 1  S   -0.058439   0.061070   0.000000   0.000000   0.074973
    2  LI 1  S    0.738999   2.131237   0.000000   0.000000   2.443606
    3  LI 1  X    0.000000  -0.000000   1.659994   0.000000  -0.000000
    4  LI 1  Y    0.000000  -0.000000   0.000000   1.659994  -0.000000
    5  LI 1  Z    0.102190  -1.252135   0.000000   0.000000   1.139847
    6  LI 1  S   -0.191193  -1.699277   0.000000   0.000000  -1.970990
    7  LI 1  X    0.000000  -0.000000  -1.450031   0.000000  -0.000000
    8  LI 1  Y    0.000000  -0.000000   0.000000  -1.450031  -0.000000
    9  LI 1  Z    0.797921   0.952487   0.000000   0.000000  -1.242052
   10  LI 1 XX   -0.012445  -0.229047   0.000000   0.000000  -0.220251
   11  LI 1 YY   -0.012445  -0.229047   0.000000   0.000000  -0.220251
   12  LI 1 ZZ   -0.133708  -0.143619   0.000000   0.000000  -0.227761
   13  LI 1 XY    0.000000  -0.000000   0.000000   0.000000  -0.000000
   14  LI 1 XZ    0.000000  -0.000000  -0.054915   0.000000  -0.000000
   15  LI 1 YZ    0.000000  -0.000000   0.000000  -0.054915  -0.000000
   16  H  2  S   -0.121256   0.031684   0.000000   0.000000   0.025702
   17  H  2  S   -0.588153   0.073025   0.000000   0.000000   0.399507
   18  H  2  X    0.000000  -0.000000  -0.000654   0.000000  -0.000000
   19  H  2  Y    0.000000  -0.000000   0.000000  -0.000654  -0.000000
   20  H  2  Z   -0.003660   0.002710   0.000000   0.000000  -0.003311

                     11         12         13         14         15
                    0.5130     0.5130     0.5223     0.5223     0.5324
                     A2         A1         B1         B2         A1  
    1  LI 1  S    0.000000  -0.000000  -0.000000  -0.000000  -0.008019
    2  LI 1  S    0.000000  -0.000000  -0.000000  -0.000000  -0.042197
    3  LI 1  X    0.000000  -0.000000   0.097943  -0.000000  -0.000000
    4  LI 1  Y    0.000000  -0.000000  -0.000000   0.097943  -0.000000
    5  LI 1  Z    0.000000  -0.000000  -0.000000  -0.000000   0.060764
    6  LI 1  S    0.000000  -0.000000  -0.000000  -0.000000   0.087962
    7  LI 1  X    0.000000  -0.000000  -0.051874  -0.000000  -0.000000
    8  LI 1  Y    0.000000  -0.000000  -0.000000  -0.051874  -0.000000
    9  LI 1  Z    0.000000  -0.000000  -0.000000  -0.000000   0.043288
   10  LI 1 XX    0.000000  -0.866025  -0.000000  -0.000000  -0.501948
   11  LI 1 YY    0.000000   0.866025  -0.000000  -0.000000  -0.501948
   12  LI 1 ZZ    0.000000  -0.000000  -0.000000  -0.000000   0.985088
   13  LI 1 XY    1.000000  -0.000000  -0.000000  -0.000000  -0.000000
   14  LI 1 XZ    0.000000  -0.000000   0.997926  -0.000000  -0.000000
   15  LI 1 YZ    0.000000  -0.000000  -0.000000   0.997926  -0.000000
   16  H  2  S    0.000000  -0.000000  -0.000000  -0.000000  -0.110958
   17  H  2  S    0.000000  -0.000000  -0.000000  -0.000000  -0.062997
   18  H  2  X    0.000000  -0.000000   0.002097  -0.000000  -0.000000
   19  H  2  Y    0.000000  -0.000000  -0.000000   0.002097  -0.000000
   20  H  2  Z    0.000000  -0.000000  -0.000000  -0.000000  -0.011500

                     16         17         18         19         20
                    1.1537     1.2292     2.4627     2.4627     2.4755
                     A1         A1         B2         B1         A1  
    1  LI 1  S    0.098632   0.065555  -0.000000  -0.000000   0.002321
    2  LI 1  S    8.772200   3.413112  -0.000000  -0.000000   0.657191
    3  LI 1  X    0.000000   0.000000  -0.000000   0.017506   0.000000
    4  LI 1  Y    0.000000   0.000000   0.017506  -0.000000   0.000000
    5  LI 1  Z   -0.018216   0.069693  -0.000000  -0.000000   0.030648
    6  LI 1  S   -2.641715  -1.297253  -0.000000  -0.000000  -0.162565
    7  LI 1  X    0.000000   0.000000  -0.000000  -0.031630   0.000000
    8  LI 1  Y    0.000000   0.000000  -0.031630  -0.000000   0.000000
    9  LI 1  Z    0.078440  -0.267151  -0.000000  -0.000000   0.021670
   10  LI 1 XX   -2.959832  -1.005518  -0.000000  -0.000000  -0.237471
   11  LI 1 YY   -2.959832  -1.005518  -0.000000  -0.000000  -0.237471
   12  LI 1 ZZ   -2.900375  -1.208385  -0.000000  -0.000000  -0.201491
   13  LI 1 XY    0.000000   0.000000  -0.000000  -0.000000   0.000000
   14  LI 1 XZ    0.000000   0.000000  -0.000000  -0.003423   0.000000
   15  LI 1 YZ    0.000000   0.000000  -0.003423  -0.000000   0.000000
   16  H  2  S    0.436024  -1.249543  -0.000000  -0.000000   0.020603
   17  H  2  S   -0.386970   1.164005  -0.000000  -0.000000  -0.038119
   18  H  2  X    0.000000   0.000000  -0.000000   1.000173   0.000000
   19  H  2  Y    0.000000   0.000000   1.000173  -0.000000   0.000000
   20  H  2  Z   -0.031524  -0.002734  -0.000000  -0.000000   1.001441
 ...... END OF RHF CALCULATION ......
 STEP CPU TIME =     0.01 TOTAL CPU TIME =        0.0 (    0.0 MIN)
 TOTAL WALL CLOCK TIME=        0.1 SECONDS, CPU UTILIZATION IS  23.08%

     ----------------------------------------------------------------
     PROPERTY VALUES FOR THE RHF   SELF-CONSISTENT FIELD WAVEFUNCTION
     ----------------------------------------------------------------

          -----------------
          ENERGY COMPONENTS
          -----------------

         WAVEFUNCTION NORMALIZATION =       1.0000000000

                ONE ELECTRON ENERGY =     -11.1153173976
                TWO ELECTRON ENERGY =       2.7800560292
           NUCLEAR REPULSION ENERGY =       0.4535804993
                                      ------------------
                       TOTAL ENERGY =      -7.8816808690

 ELECTRON-ELECTRON POTENTIAL ENERGY =       2.7800560292
  NUCLEUS-ELECTRON POTENTIAL ENERGY =     -18.9035207470
   NUCLEUS-NUCLEUS POTENTIAL ENERGY =       0.4535804993
                                      ------------------
             TOTAL POTENTIAL ENERGY =     -15.6698842184
               TOTAL KINETIC ENERGY =       7.7882033494
                 VIRIAL RATIO (V/T) =       2.0120024498

  ...... PI ENERGY ANALYSIS ......

 ENERGY ANALYSIS:
            FOCK ENERGY=     -5.5552053372
          BARE H ENERGY=    -11.1153173976
     ELECTRONIC ENERGY =     -8.3352613674
         KINETIC ENERGY=      7.7882033494
          N-N REPULSION=      0.4535804993
           TOTAL ENERGY=     -7.8816808681
        SIGMA PART(1+2)=     -8.3352613674
               (K,V1,2)=      7.7882033494    -18.9035207470      2.7800560302
           PI PART(1+2)=      0.0000000000
               (K,V1,2)=      0.0000000000      0.0000000000      0.0000000000
  SIGMA SKELETON, ERROR=     -7.8816808681      0.0000000000
             MIXED PART= 0.00000E+00 0.00000E+00 0.00000E+00 0.00000E+00
 ...... END OF PI ENERGY ANALYSIS ......

          ---------------------------------------
          MULLIKEN AND LOWDIN POPULATION ANALYSES
          ---------------------------------------

               ----- POPULATIONS IN EACH AO -----
                             MULLIKEN      LOWDIN
              1  LI 1  S      1.99793     1.97907
              2  LI 1  S     -0.04090     0.10213
              3  LI 1  X      0.00000     0.00000
              4  LI 1  Y      0.00000     0.00000
              5  LI 1  Z      0.02831     0.05505
              6  LI 1  S      0.46644     0.30914
              7  LI 1  X      0.00000     0.00000
              8  LI 1  Y      0.00000     0.00000
              9  LI 1  Z      0.18820     0.18164
             10  LI 1 XX      0.01287     0.02163
             11  LI 1 YY      0.01287     0.02163
             12  LI 1 ZZ      0.03384     0.04375
             13  LI 1 XY      0.00000     0.00000
             14  LI 1 XZ      0.00000     0.00000
             15  LI 1 YZ      0.00000     0.00000
             16  H  2  S      0.32501     0.38286
             17  H  2  S      0.97534     0.90298
             18  H  2  X      0.00000     0.00000
             19  H  2  Y      0.00000     0.00000
             20  H  2  Z      0.00007     0.00013

          ----- MULLIKEN ATOMIC OVERLAP POPULATIONS -----
          (OFF-DIAGONAL ELEMENTS NEED TO BE MULTIPLIED BY 2)

             1           2

    1    2.4885007
    2    0.2110722   1.0893550

          TOTAL MULLIKEN AND LOWDIN ATOMIC POPULATIONS
       ATOM         MULL.POP.    CHARGE          LOW.POP.     CHARGE
    1 LI            2.699573    0.300427         2.714034    0.285966
    2 H             1.300427   -0.300427         1.285966   -0.285966

          ---------------------
          ELECTROSTATIC MOMENTS
          ---------------------

 POINT   1           X           Y           Z (BOHR)    CHARGE
                 0.000000    0.000000    0.830750       -0.00 (A.U.)
         DX          DY          DZ         /D/  (DEBYE)
     0.000000    0.000000  -10.268782   10.268782
 ...... END OF PROPERTY EVALUATION ......
 STEP CPU TIME =     0.01 TOTAL CPU TIME =        0.0 (    0.0 MIN)
 TOTAL WALL CLOCK TIME=        0.1 SECONDS, CPU UTILIZATION IS  30.77%

 DETERMINANT CI OPTIONS   NRNFG   NPFLG
 INTEGRAL TRANSFORMATION    1       0
 DIAGONALIZE HAMILTONIAN    1       0
 FORM 1E- DENSITY MATRIX    1       0
 FORM 2E- DENSITY MATRIX    0       0

     --------------------------------------------------
          AMES LABORATORY DETERMINANTAL FULL CI
     PROGRAM WRITTEN BY JOE IVANIC AND KLAUS RUEDENBERG
     --------------------------------------------------

 THE POINT GROUP                  =   C2V     
 THE STATE SYMMETRY               =   A1      
 NUMBER OF CORE ORBITALS          =    0
 NUMBER OF ACTIVE ORBITALS        =   20
 NUMBER OF ALPHA ELECTRONS        =    2 (   2 ACTIVE)
 NUMBER OF BETA ELECTRONS         =    2 (   2 ACTIVE)
 NUMBER OF OCCUPIED ORBITALS      =   20
 NUMBER OF CI STATES REQUESTED    =    1
 NUMBER OF CI STARTING VECTORS    =    1
 MAX. NO. OF CI EXPANSION VECTORS =   10
 SIZE OF INITIAL CI GUESS MATRIX  =  300
 MAX. NO. OF CI ITERS/STATE       =  100
 CI DIAGONALIZATION CRITERION     = 1.00E-06
 CI PROPERTIES WILL BE FOUND FOR ROOT NUMBER   1
 1E- DENSITY MATRIX OPTIONS ARE 1

 CORRELATION ENERGY ANALYSIS      =    F

 SYMMETRIES FOR THE   0 CORE,  20 ACTIVE ARE

   ACTIVE= A1    A1    A1    B2    B1    A1    A1    B1    B2    A1  
           A2    A1    B1    B2    A1    A1    A1    B2    B1    A1  

     --------------------------------------------
     PARTIAL TWO ELECTRON INTEGRAL TRANSFORMATION
     --------------------------------------------

 NUMBER OF CORE MOLECULAR ORBITALS     =    0
 NUMBER OF OCCUPIED MOLECULAR ORBITALS =   20
 TOTAL NUMBER OF MOLECULAR ORBITALS    =   20
 TOTAL NUMBER OF ATOMIC ORBITALS       =   20
 THRESHOLD FOR KEEPING TRANSFORMED 2E- INTEGRALS = 1.000E-09
 AO INTEGRALS WILL BE READ IN FROM DISK...

 PLAN A: REQUIREMENTS FOR FULLY IN-MEMORY TRANSFORMATION:
 # OF WORDS AVAILABLE =              1000000
 # OF WORDS NEEDED    =               146042

 CHOOSING IN MEMORY PARTIAL TRANSFORMATION...
 TOTAL NUMBER OF TRANSFORMED 2E- INTEGRALS KEPT =         5962
 ... END OF INTEGRAL TRANSFORMATION ...
 STEP CPU TIME =     0.00 TOTAL CPU TIME =        0.0 (    0.0 MIN)
 TOTAL WALL CLOCK TIME=        0.1 SECONDS, CPU UTILIZATION IS  28.57%

     --------------------------------------------------
          AMES LABORATORY DETERMINANTAL FULL CI
     PROGRAM WRITTEN BY JOE IVANIC AND KLAUS RUEDENBERG
     --------------------------------------------------

 THE NUMBER OF DETERMINANTS HAVING SPACE SYMMETRY A1 
 IN POINT GROUP C2V  WITH SZ=  0.0 IS           9826
 THE DETERMINANT FULL CI REQUIRES          451749 WORDS
 INITIAL CI VECTOR GUESS TIME  :          0.0
 INITIAL FULL CI ITERATION TIME:          0.0

 ITERATION      ENERGY           GRADIENT
     0       -7.9383215734     0.06534974
     1       -7.9391100371     0.00495699
     2       -7.9391384483     0.00245472
     3       -7.9391421118     0.00067552
     4       -7.9391428030     0.00050173
     5       -7.9391431174     0.00026140
     6       -7.9391431551     0.00007321
     7       -7.9391431609     0.00003489
     8       -7.9391431619     0.00001087
     9       -7.9391431620     0.00000241
    10       -7.9391431620     0.00000053

 CONVERGED STATE    1 ENERGY=       -7.9391431620 IN   10 ITERS

 ALL STATES CONVERGED.

 CI EIGENVECTORS WILL BE LABELED IN GROUP=C2V     
 PRINTING CI COEFFICIENTS LARGER THAN 5.000E-02

 STATE   1  ENERGY=        -7.9391431620  S=  0.00  SZ=  0.00  SPACE SYM=A1  

        ALPHA         |        BETA          | CI COEFFICIENT
----------------------|----------------------|---------------
 11000000000000000000 | 11000000000000000000 |   0.8116864742
 11000000000000000000 | 10100000000000000000 |  -0.2598210084
 10100000000000000000 | 11000000000000000000 |  -0.2598210084
 10100000000000000000 | 10100000000000000000 |  -0.2365386008
 10100000000000000000 | 10000100000000000000 |   0.2166855608
 10000100000000000000 | 10100000000000000000 |   0.2166855608
 10000100000000000000 | 10000100000000000000 |  -0.1744390373
 ..... DONE WITH DETERMINANT CI COMPUTATION .....
 STEP CPU TIME =     0.23 TOTAL CPU TIME =        0.3 (    0.0 MIN)
 TOTAL WALL CLOCK TIME=        0.4 SECONDS, CPU UTILIZATION IS  62.79%

     ---------------------------
     ONE PARTICLE DENSITY MATRIX
     ---------------------------

 DENSITY MATRIX WILL BE SAVED FOR   1-TH STATE WITH S= 0.00

 CI EIGENSTATE   1 TOTAL ENERGY =       -7.9391431620

          NATURAL ORBITALS IN ATOMIC ORBITAL BASIS
          ----------------------------------------

                      1          2          3          4          5
                    1.9998     1.5404     0.4587     0.0003     0.0002
                     A1         A1         A1         A1         A1  
    1  LI 1  S    0.998519  -0.117530  -0.147324   0.052853  -0.005623
    2  LI 1  S   -0.007104   0.122357   0.228739   1.415194   1.191028
    3  LI 1  X   -0.000000  -0.000000  -0.000000  -0.000000  -0.000000
    4  LI 1  Y   -0.000000  -0.000000  -0.000000  -0.000000  -0.000000
    5  LI 1  Z   -0.001923   0.027909   0.044174   1.039730   0.298336
    6  LI 1  S    0.000746   0.460389   0.549836  -0.866365  -0.498390
    7  LI 1  X   -0.000000  -0.000000  -0.000000  -0.000000  -0.000000
    8  LI 1  Y   -0.000000  -0.000000  -0.000000  -0.000000  -0.000000
    9  LI 1  Z    0.001462   0.077747   0.068903  -0.321278  -0.241150
   10  LI 1 XX    0.007754   0.021294   0.017148  -0.482317  -0.280397
   11  LI 1 YY    0.007754   0.021294   0.017148  -0.482317  -0.280397
   12  LI 1 ZZ    0.007699   0.032218   0.026763  -0.006397  -0.192146
   13  LI 1 XY   -0.000000  -0.000000  -0.000000  -0.000000  -0.000000
   14  LI 1 XZ   -0.000000  -0.000000  -0.000000  -0.000000  -0.000000
   15  LI 1 YZ   -0.000000  -0.000000  -0.000000  -0.000000  -0.000000
   16  H  2  S    0.000312   0.280665  -0.348536  -0.220992   1.178191
   17  H  2  S    0.000407   0.462631  -0.465490   0.159027  -1.044900
   18  H  2  X   -0.000000  -0.000000  -0.000000  -0.000000  -0.000000
   19  H  2  Y   -0.000000  -0.000000  -0.000000  -0.000000  -0.000000
   20  H  2  Z   -0.000045  -0.000285  -0.001177  -0.340857  -0.174943

                      6          7          8          9         10
                    0.0001     0.0001     0.0001     0.0001     0.0001
                     B2         B1         B2         B1         A1  
    1  LI 1  S   -0.000000  -0.000000   0.000000   0.000000   0.120410
    2  LI 1  S   -0.000000  -0.000000   0.000000   0.000000   7.834314
    3  LI 1  X   -0.000000   0.562982   0.000000   1.135788   0.000000
    4  LI 1  Y    0.562982  -0.000000   1.135788   0.000000   0.000000
    5  LI 1  Z   -0.000000  -0.000000   0.000000   0.000000  -0.679898
    6  LI 1  S   -0.000000  -0.000000   0.000000   0.000000  -3.161037
    7  LI 1  X   -0.000000   0.252280   0.000000  -0.674092   0.000000
    8  LI 1  Y    0.252280  -0.000000  -0.674092   0.000000   0.000000
    9  LI 1  Z   -0.000000  -0.000000   0.000000   0.000000   0.392206
   10  LI 1 XX   -0.000000  -0.000000   0.000000   0.000000  -2.253864
   11  LI 1 YY   -0.000000  -0.000000   0.000000   0.000000  -2.253864
   12  LI 1 ZZ   -0.000000  -0.000000   0.000000   0.000000  -2.243773
   13  LI 1 XY   -0.000000  -0.000000   0.000000   0.000000   0.000000
   14  LI 1 XZ   -0.000000   0.239545   0.000000   0.028968   0.000000
   15  LI 1 YZ    0.239545  -0.000000   0.028968   0.000000   0.000000
   16  H  2  S   -0.000000  -0.000000   0.000000   0.000000  -0.202890
   17  H  2  S   -0.000000  -0.000000   0.000000   0.000000   0.273427
   18  H  2  X   -0.000000   0.570096   0.000000  -0.691843   0.000000
   19  H  2  Y    0.570096  -0.000000  -0.691843   0.000000   0.000000
   20  H  2  Z   -0.000000  -0.000000   0.000000   0.000000  -0.363595

                     11         12         13         14         15
                    0.0000     0.0000     0.0000     0.0000     0.0000
                     A1         B2         B1         A1         A1  
    1  LI 1  S    0.080971  -0.000000  -0.000000  -0.020219   0.004640
    2  LI 1  S    4.812826  -0.000000  -0.000000  -1.308452   2.617961
    3  LI 1  X    0.000000  -0.000000  -1.087810   0.000000   0.000000
    4  LI 1  Y    0.000000  -1.087810  -0.000000   0.000000   0.000000
    5  LI 1  Z    0.507169  -0.000000  -0.000000  -1.002208  -0.054512
    6  LI 1  S   -2.114983  -0.000000  -0.000000   0.362757   0.000991
    7  LI 1  X    0.000000  -0.000000   1.447612   0.000000   0.000000
    8  LI 1  Y    0.000000   1.447612  -0.000000   0.000000   0.000000
    9  LI 1  Z   -0.442338  -0.000000  -0.000000   1.529027   0.639645
   10  LI 1 XX   -1.303335  -0.000000  -0.000000   0.243385  -1.017515
   11  LI 1 YY   -1.303335  -0.000000  -0.000000   0.243385  -1.017515
   12  LI 1 ZZ   -1.288768  -0.000000  -0.000000   0.942501  -1.781282
   13  LI 1 XY    0.000000  -0.000000  -0.000000   0.000000   0.000000
   14  LI 1 XZ    0.000000  -0.000000   0.254334   0.000000   0.000000
   15  LI 1 YZ    0.000000   0.254334  -0.000000   0.000000   0.000000
   16  H  2  S   -0.035344  -0.000000  -0.000000   0.330440   0.226921
   17  H  2  S    0.171836  -0.000000  -0.000000  -0.674269  -0.482917
   18  H  2  X    0.000000  -0.000000  -0.443474   0.000000   0.000000
   19  H  2  Y    0.000000  -0.443474  -0.000000   0.000000   0.000000
   20  H  2  Z    0.813543  -0.000000  -0.000000   0.232734   0.061219

                     16         17         18         19         20
                    0.0000     0.0000     0.0000     0.0000     0.0000
                     B2         B1         A1         A2         A1  
    1  LI 1  S   -0.000000  -0.000000   0.000000   0.000000  -0.017163
    2  LI 1  S   -0.000000  -0.000000   0.000000   0.000000   1.871257
    3  LI 1  X   -0.000000   0.116261   0.000000   0.000000  -0.000000
    4  LI 1  Y    0.116261  -0.000000   0.000000   0.000000  -0.000000
    5  LI 1  Z   -0.000000  -0.000000   0.000000   0.000000   0.087119
    6  LI 1  S   -0.000000  -0.000000   0.000000   0.000000   0.397779
    7  LI 1  X   -0.000000  -0.436762   0.000000   0.000000  -0.000000
    8  LI 1  Y   -0.436762  -0.000000   0.000000   0.000000  -0.000000
    9  LI 1  Z   -0.000000  -0.000000   0.000000   0.000000  -0.286230
   10  LI 1 XX   -0.000000  -0.000000  -0.866025   0.000000  -1.413516
   11  LI 1 YY   -0.000000  -0.000000   0.866025   0.000000  -1.413516
   12  LI 1 ZZ   -0.000000  -0.000000   0.000000   0.000000  -0.427026
   13  LI 1 XY   -0.000000  -0.000000   0.000000   1.000000  -0.000000
   14  LI 1 XZ   -0.000000   0.936534   0.000000   0.000000  -0.000000
   15  LI 1 YZ    0.936534  -0.000000   0.000000   0.000000  -0.000000
   16  H  2  S   -0.000000  -0.000000   0.000000   0.000000   0.086517
   17  H  2  S   -0.000000  -0.000000   0.000000   0.000000  -0.153419
   18  H  2  X   -0.000000  -0.005426   0.000000   0.000000  -0.000000
   19  H  2  Y   -0.005426  -0.000000   0.000000   0.000000  -0.000000
   20  H  2  Z   -0.000000  -0.000000   0.000000   0.000000   0.072781
 ..... DONE WITH ONE PARTICLE DENSITY MATRIX .....
 STEP CPU TIME =     0.00 TOTAL CPU TIME =        0.3 (    0.0 MIN)
 TOTAL WALL CLOCK TIME=        0.4 SECONDS, CPU UTILIZATION IS  62.79%

     --------------------------------------------------------
     ALDET CI PROPERTIES...FOR THE WAVEFUNCTION OF STATE    1
               USING THE EXPECTATION VALUE DENSITY
     --------------------------------------------------------

          -----------------
          ENERGY COMPONENTS
          -----------------

         WAVEFUNCTION NORMALIZATION =       1.0000000000

                ONE ELECTRON ENERGY =     -11.1436384898
                TWO ELECTRON ENERGY =       2.7509148284
           NUCLEAR REPULSION ENERGY =       0.4535804993
                                      ------------------
                       TOTAL ENERGY =      -7.9391431620

 ELECTRON-ELECTRON POTENTIAL ENERGY =       2.7509148284
  NUCLEUS-ELECTRON POTENTIAL ENERGY =     -19.0625805393
   NUCLEUS-NUCLEUS POTENTIAL ENERGY =       0.4535804993
                                      ------------------
             TOTAL POTENTIAL ENERGY =     -15.8580852115
               TOTAL KINETIC ENERGY =       7.9189420495
                 VIRIAL RATIO (V/T) =       2.0025509863

          ---------------------------------------
          MULLIKEN AND LOWDIN POPULATION ANALYSES
          ---------------------------------------

               ----- POPULATIONS IN EACH AO -----
                             MULLIKEN      LOWDIN
              1  LI 1  S      1.99831     1.98454
              2  LI 1  S      0.18919     0.23758
              3  LI 1  X      0.00009     0.00008
              4  LI 1  Y      0.00009     0.00008
              5  LI 1  Z      0.00873     0.01435
              6  LI 1  S      0.66100     0.46652
              7  LI 1  X      0.00004     0.00005
              8  LI 1  Y      0.00004     0.00005
              9  LI 1  Z      0.03417     0.04736
             10  LI 1 XX      0.01865     0.07024
             11  LI 1 YY      0.01865     0.07024
             12  LI 1 ZZ      0.02945     0.08275
             13  LI 1 XY      0.00000     0.00000
             14  LI 1 XZ      0.00001     0.00001
             15  LI 1 YZ      0.00001     0.00001
             16  H  2  S      0.36862     0.39726
             17  H  2  S      0.67270     0.62851
             18  H  2  X      0.00007     0.00007
             19  H  2  Y      0.00007     0.00007
             20  H  2  Z      0.00011     0.00020

          ----- MULLIKEN ATOMIC OVERLAP POPULATIONS -----
          (OFF-DIAGONAL ELEMENTS NEED TO BE MULTIPLIED BY 2)

             1           2

    1    2.8847384
    2    0.0736907   0.9678803

          TOTAL MULLIKEN AND LOWDIN ATOMIC POPULATIONS
       ATOM         MULL.POP.    CHARGE          LOW.POP.     CHARGE
    1 LI            2.958429    0.041571         2.973875    0.026125
    2 H             1.041571   -0.041571         1.026125   -0.026125

          ---------------------
          ELECTROSTATIC MOMENTS
          ---------------------

 POINT   1           X           Y           Z (BOHR)    CHARGE
                 0.000000    0.000000    0.830750        0.00 (A.U.)
         DX          DY          DZ         /D/  (DEBYE)
     0.000000    0.000000   -3.174816    3.174816
 ...... END OF PROPERTY EVALUATION ......
 STEP CPU TIME =     0.00 TOTAL CPU TIME =        0.3 (    0.0 MIN)
 TOTAL WALL CLOCK TIME=        0.4 SECONDS, CPU UTILIZATION IS  62.79%
               580000  WORDS OF DYNAMIC MEMORY USED
 EXECUTION OF GAMESS TERMINATED NORMALLY Thu Jan 17 17:50:20 2019
 DDI: 263640 bytes (0.3 MB / 0 MWords) used by master data server.

 ----------------------------------------
 CPU timing information for all processes
 ========================================
 0: 0.229 + 0.58 = 0.287
 1: 0.10 + 0.46 = 0.56
 ----------------------------------------
 ddikick.x: exited gracefully.
unset echo
----- accounting info -----
Files used on the master node bach.ad64.riken.go.jp were:
-rw-------  1 maho  staff      280  1 17 17:50 .//LiH.631g/3.5/LiH.631g.fullCI.3.5.gamess.F05
-rw-r--r--  1 maho  staff   180016  1 17 17:50 .//LiH.631g/3.5/LiH.631g.fullCI.3.5.gamess.F08
-rw-r--r--  1 maho  staff   181704  1 17 17:50 .//LiH.631g/3.5/LiH.631g.fullCI.3.5.gamess.F09
-rw-r--r--  1 maho  staff  1832320  1 17 17:50 .//LiH.631g/3.5/LiH.631g.fullCI.3.5.gamess.F10
-rw-r--r--  1 maho  staff    78640  1 17 17:50 .//LiH.631g/3.5/LiH.631g.fullCI.3.5.gamess.F12
-rw-r--r--  1 maho  staff    14499  1 17 17:50 .//LiH.631g/3.5/LiH.631g.fullCI.3.5.gamess.dat
-rw-------  1 maho  staff      280  1 17 17:50 .//LiH.631g/3.5/LiH.631g.fullCI.3.5.gamess.inp
-rw-r--r--  1 maho  staff    43092  1 17 17:50 .//LiH.631g/3.5/LiH.631g.fullCI.3.5.gamess.log
ls: No match.
ls: No match.
ls: No match.
2019年 1月17日 木曜日 17時50分24秒 JST
0.349u 0.214s 0:03.96 13.8%	0+0k 76+8io 32pf+0w
