----- GAMESS execution script 'rungms' -----
This job is running on host bach.ad64.riken.go.jp
under operating system Darwin at 2019年 1月17日 木曜日 17時46分32秒 JST
Available scratch disk space (Kbyte units) at beginning of the job is
Filesystem   1024-blocks       Used Available Capacity iused      ifree %iused  Mounted on
/dev/disk2s2  1953178672 1144741496 808437176    59%  984162 4293983117    0%   /Volumes/Users
GAMESS temporary binary files will be written to ./
GAMESS supplementary output files will be written to ./
Copying input file LiH.631g/1.9/LiH.631g.fullCI.1.9.gamess.inp to your run's scratch directory...
cp LiH.631g/1.9/LiH.631g.fullCI.1.9.gamess.inp .//LiH.631g/1.9/LiH.631g.fullCI.1.9.gamess.F05
unset echo
/Volumes/Users/maho/bin/gamess//ddikick.x /Volumes/Users/maho/bin/gamess//gamess.00.x LiH.631g/1.9/LiH.631g.fullCI.1.9.gamess -ddi 1 1 bach.ad64.riken.go.jp -scr ./

 Distributed Data Interface kickoff program.
 Initiating 1 compute processes on 1 nodes to run the following command:
 /Volumes/Users/maho/bin/gamess//gamess.00.x LiH.631g/1.9/LiH.631g.fullCI.1.9.gamess 

          ******************************************************
          *         GAMESS VERSION = 18 AUG 2016 (R1)          *
          *             FROM IOWA STATE UNIVERSITY             *
          * M.W.SCHMIDT, K.K.BALDRIDGE, J.A.BOATZ, S.T.ELBERT, *
          *   M.S.GORDON, J.H.JENSEN, S.KOSEKI, N.MATSUNAGA,   *
          *          K.A.NGUYEN, S.J.SU, T.L.WINDUS,           *
          *       TOGETHER WITH M.DUPUIS, J.A.MONTGOMERY       *
          *         J.COMPUT.CHEM.  14, 1347-1363(1993)        *
          **************** 64 BIT APPLE VERSION ****************

  SINCE 1993, STUDENTS AND POSTDOCS WORKING AT IOWA STATE UNIVERSITY
  AND ALSO IN THEIR VARIOUS JOBS AFTER LEAVING ISU HAVE MADE IMPORTANT
  CONTRIBUTIONS TO THE CODE:
     IVANA ADAMOVIC, CHRISTINE AIKENS, YURI ALEXEEV, POOJA ARORA,
     ANDREY ASADCHEV, ROB BELL, PRADIPTA BANDYOPADHYAY, JONATHAN BENTZ,
     BRETT BODE, KURT BRORSEN, CALEB CARLIN, GALINA CHABAN, WEI CHEN,
     CHEOL HO CHOI, PAUL DAY, ALBERT DEFUSCO, NUWAN DESILVA, TIM DUDLEY,
     DMITRI FEDOROV, GRAHAM FLETCHER, MARK FREITAG, KURT GLAESEMANN,
     DAN KEMP, GRANT MERRILL, NORIYUKI MINEZAWA, JONATHAN MULLIN,
     TAKESHI NAGATA, SEAN NEDD, HEATHER NETZLOFF, BOSILJKA NJEGIC, RYAN OLSON,
     MIKE PAK, SPENCER PRUITT, LUKE ROSKOP, JIM SHOEMAKER, LYUDMILA SLIPCHENKO,
     TONY SMITH, SAROM SOK LEANG, JIE SONG, TETSUYA TAKETSUGU, SIMON WEBB,
     PENG XU, SOOHAENG YOO, FEDERICO ZAHARIEV

  ADDITIONAL CODE HAS BEEN PROVIDED BY COLLABORATORS IN OTHER GROUPS:
     IOWA STATE UNIVERSITY:
          JOE IVANIC, AARON WEST, LAIMUTIS BYTAUTAS, KLAUS RUEDENBERG
     UNIVERSITY OF TOKYO: KIMIHIKO HIRAO, TAKAHITO NAKAJIMA,
          TAKAO TSUNEDA, MUNEAKI KAMIYA, SUSUMU YANAGISAWA,
          KIYOSHI YAGI, MAHITO CHIBA, SEIKEN TOKURA, NAOAKI KAWAKAMI
     UNIVERSITY OF AARHUS: FRANK JENSEN
     UNIVERSITY OF IOWA: VISVALDAS KAIRYS, HUI LI
     NATIONAL INST. OF STANDARDS AND TECHNOLOGY: WALT STEVENS, DAVID GARMER
     UNIVERSITY OF PISA: BENEDETTA MENNUCCI, JACOPO TOMASI
     UNIVERSITY OF MEMPHIS: HENRY KURTZ, PRAKASHAN KORAMBATH
     UNIVERSITY OF ALBERTA: TOBY ZENG, MARIUSZ KLOBUKOWSKI
     UNIVERSITY OF NEW ENGLAND: MARK SPACKMAN
     MIE UNIVERSITY: HIROAKI UMEDA
     NAT. INST. OF ADVANCED INDUSTRIAL SCIENCE AND TECHNOLOGY: KAZUO KITAURA
     MICHIGAN STATE UNIVERSITY:
          KAROL KOWALSKI, MARTA WLOCH, JEFFREY GOUR, JESSE LUTZ,
          WEI LI, PIOTR PIECUCH
     UNIVERSITY OF SILESIA: MONIKA MUSIAL, STANISLAW KUCHARSKI
     FACULTES UNIVERSITAIRES NOTRE-DAME DE LA PAIX:
          OLIVIER QUINET, BENOIT CHAMPAGNE
     UNIVERSITY OF CALIFORNIA - SANTA BARBARA: BERNARD KIRTMAN
     INSTITUTE FOR MOLECULAR SCIENCE:
          KAZUYA ISHIMURA, MICHIO KATOUDA, AND SHIGERU NAGASE
     UNIVERSITY OF NOTRE DAME: ANNA POMOGAEVA, DAN CHIPMAN
     KYUSHU UNIVERSITY:
          HARUYUKI NAKANO,
          FENG LONG GU, JACEK KORCHOWIEC, MARCIN MAKOWSKI, AND YURIKO AOKI,
          HIROTOSHI MORI AND EISAKU MIYOSHI
     PENNSYLVANIA STATE UNIVERSITY:
          TZVETELIN IORDANOV, CHET SWALINA, JONATHAN SKONE,
          SHARON HAMMES-SCHIFFER
     WASEDA UNIVERSITY:
          MASATO KOBAYASHI, TOMOKO AKAMA, TSUGUKI TOUMA,
          TAKESHI YOSHIKAWA, YASUHIRO IKABATA, JUNJI SEINO,
          YUYA NAKAJIMA, HIROMI NAKAI
     NANJING UNIVERSITY: SHUHUA LI
     UNIVERSITY OF NEBRASKA:
          PEIFENG SU, DEJUN SI, NANDUN THELLAMUREGE, YALI WANG, HUI LI
     UNIVERSITY OF ZURICH: ROBERTO PEVERATI, KIM BALDRIDGE
     N. COPERNICUS UNIVERSITY AND JACKSON STATE UNIVERSITY:
          MARIA BARYSZ
     UNIVERSITY OF COPENHAGEN: Jimmy Kromann, CASPER STEINMANN
     TOKYO INSTITUTE OF TECHNOLOGY: HIROYA NAKATA
     NAGOYA UNIVERSITY: YOSHIO NISHIMOTO, STEPHAN IRLE
     MOSCOW STATE UNIVERSITY: VLADIMIR MIRONOV

 EXECUTION OF GAMESS BEGUN Thu Jan 17 17:46:32 2019

            ECHO OF THE FIRST FEW INPUT CARDS -
 INPUT CARD> $CONTRL SCFTYP=RHF CITYP=ALDET $END                                            
 INPUT CARD> $GUESS  GUESS=HUCKEL $END                                                      
 INPUT CARD> $BASIS GBASIS=N31 NGAUSS=6 NDFUNC=1 NPFUNC=1 $END                              
 INPUT CARD> $CIDET SZ=0 GROUP=C2V NCORE=0 NACT=20 NELS=4 $END                              
 INPUT CARD> $DATA                                                                          
 INPUT CARD>LiH...HF...6-31G* basis                                                         
 INPUT CARD>Cnv   2                                                                         
 INPUT CARD>                                                                                
 INPUT CARD>Li    3.0    0.0      0.0     0.0                                               
 INPUT CARD>H     1.0    0.0      0.0     1.9                                               
 INPUT CARD> $END                                                                           
    1000000 WORDS OF MEMORY AVAILABLE

     BASIS OPTIONS
     -------------
     GBASIS=N31          IGAUSS=       6      POLAR=POPN31  
     NDFUNC=       1     NFFUNC=       0     DIFFSP=       F
     NPFUNC=       1      DIFFS=       F     BASNAM=        


     RUN TITLE
     ---------
 LiH...HF...6-31G* basis                                                         

 THE POINT GROUP OF THE MOLECULE IS CNV     
 THE ORDER OF THE PRINCIPAL AXIS IS     2

 ATOM      ATOMIC                      COORDINATES (BOHR)
           CHARGE         X                   Y                   Z
 LI          3.0     0.0000000000        0.0000000000        0.0000000000
 H           1.0     0.0000000000        0.0000000000        3.5904793767

          INTERNUCLEAR DISTANCES (ANGS.)
          ------------------------------

                1 LI         2 H     

   1 LI      0.0000000    1.9000000 *
   2 H       1.9000000 *  0.0000000  

  * ... LESS THAN  3.000


     ATOMIC BASIS SET
     ----------------
 THE CONTRACTED PRIMITIVE FUNCTIONS HAVE BEEN UNNORMALIZED
 THE CONTRACTED BASIS FUNCTIONS ARE NOW NORMALIZED TO UNITY

  SHELL TYPE  PRIMITIVE        EXPONENT          CONTRACTION COEFFICIENT(S)

 LI        

      1   S       1           642.4189150    0.002142607810
      1   S       2            96.7985153    0.016208871501
      1   S       3            22.0911212    0.077315572504
      1   S       4             6.2010702    0.245786052013
      1   S       5             1.9351177    0.470189004025
      1   S       6             0.6367358    0.345470845019

      2   L       7             2.3249184   -0.035091745735    0.008941508043
      2   L       8             0.6324304   -0.191232843103    0.141009464046
      2   L       9             0.0790534    1.083987794916    0.945363695309

      3   L      10             0.0359620    1.000000000000    1.000000000000

      4   D      11             0.2000000    1.000000000000

 H         

      5   S      12            18.7311370    0.033494604338
      5   S      13             2.8253944    0.234726953484
      5   S      14             0.6401217    0.813757326146

      6   S      15             0.1612778    1.000000000000

      7   P      16             1.1000000    1.000000000000

 TOTAL NUMBER OF BASIS SET SHELLS             =    7
 NUMBER OF CARTESIAN GAUSSIAN BASIS FUNCTIONS =   20
 NUMBER OF ELECTRONS                          =    4
 CHARGE OF MOLECULE                           =    0
 SPIN MULTIPLICITY                            =    1
 NUMBER OF OCCUPIED ORBITALS (ALPHA)          =    2
 NUMBER OF OCCUPIED ORBITALS (BETA )          =    2
 TOTAL NUMBER OF ATOMS                        =    2
 THE NUCLEAR REPULSION ENERGY IS        0.8355430251

 THIS MOLECULE IS RECOGNIZED AS BEING LINEAR,
 ORBITAL LZ DEGENERACY TOLERANCE ETOLLZ= 1.00E-06

     $CONTRL OPTIONS
     ---------------
 SCFTYP=RHF          RUNTYP=ENERGY       EXETYP=RUN     
 MPLEVL=       0     CITYP =ALDET        CCTYP =NONE         VBTYP =NONE    
 DFTTYP=NONE         TDDFT =NONE    
 MULT  =       1     ICHARG=       0     NZVAR =       0     COORD =UNIQUE  
 PP    =NONE         RELWFN=NONE         LOCAL =NONE         NUMGRD=       F
 ISPHER=      -1     NOSYM =       0     MAXIT =      30     UNITS =ANGS    
 PLTORB=       F     MOLPLT=       F     AIMPAC=       F     FRIEND=        
 NPRINT=       7     IREST =       0     GEOM  =INPUT   
 NORMF =       0     NORMP =       0     ITOL  =      20     ICUT  =       9
 INTTYP=BEST         GRDTYP=BEST         QMTTOL= 1.0E-06

     $SYSTEM OPTIONS
     ---------------
  REPLICATED MEMORY=     1000000 WORDS (ON EVERY NODE).
 DISTRIBUTED MEMDDI=           0 MILLION WORDS IN AGGREGATE,
 MEMDDI DISTRIBUTED OVER   1 PROCESSORS IS           0 WORDS/PROCESSOR.
 TOTAL MEMORY REQUESTED ON EACH PROCESSOR=     1000000 WORDS.
 TIMLIM=      525600.00 MINUTES, OR     365.0 DAYS.
 PARALL= F  BALTYP=  DLB     KDIAG=    0  COREFL= F
 MXSEQ2=     300 MXSEQ3=     150  mem10=         0

          ----------------
          PROPERTIES INPUT
          ----------------

     MOMENTS            FIELD           POTENTIAL          DENSITY
 IEMOM =       1   IEFLD =       0   IEPOT =       0   IEDEN =       0
 WHERE =COMASS     WHERE =NUCLEI     WHERE =NUCLEI     WHERE =NUCLEI  
 OUTPUT=BOTH       OUTPUT=BOTH       OUTPUT=BOTH       OUTPUT=BOTH    
 IEMINT=       0   IEFINT=       0                     IEDINT=       0
                                                       MORB  =       0
          EXTRAPOLATION IN EFFECT
          SOSCF IN EFFECT
 ORBITAL PRINTING OPTION: NPREO=     1    20     2     1

     -------------------------------
     INTEGRAL TRANSFORMATION OPTIONS
     -------------------------------
     NWORD  =            0
     CUTOFF = 1.0E-09     MPTRAN =       0
     DIRTRF =       F     AOINTS =DUP     

          ----------------------
          INTEGRAL INPUT OPTIONS
          ----------------------
 NOPK  =       1 NORDER=       0 SCHWRZ=       F

     ------------------------------------------
     THE POINT GROUP IS CNV, NAXIS= 2, ORDER= 4
     ------------------------------------------

     DIMENSIONS OF THE SYMMETRY SUBSPACES ARE
 A1  =   11     A2  =    1     B1  =    4     B2  =    4

 ..... DONE SETTING UP THE RUN .....
 STEP CPU TIME =     0.00 TOTAL CPU TIME =        0.0 (    0.0 MIN)
 TOTAL WALL CLOCK TIME=        0.0 SECONDS, CPU UTILIZATION IS   0.00%

          ********************
          1 ELECTRON INTEGRALS
          ********************
 ...... END OF ONE-ELECTRON INTEGRALS ......
 STEP CPU TIME =     0.00 TOTAL CPU TIME =        0.0 (    0.0 MIN)
 TOTAL WALL CLOCK TIME=        0.0 SECONDS, CPU UTILIZATION IS   0.00%

          -------------
          GUESS OPTIONS
          -------------
          GUESS =HUCKEL            NORB  =       0          NORDER=       0
          MIX   =       F          PRTMO =       F          PUNMO =       F
          TOLZ  = 1.0E-08          TOLE  = 1.0E-05
          SYMDEN=       F          PURIFY=       F

 INITIAL GUESS ORBITALS GENERATED BY HUCKEL   ROUTINE.
 HUCKEL GUESS REQUIRES      4469 WORDS.

 SYMMETRIES FOR INITIAL GUESS ORBITALS FOLLOW.   BOTH SET(S).
     2 ORBITALS ARE OCCUPIED (    1 CORE ORBITALS).
     2=A1       3=A1       4=A1       5=A1       6=A1       7=A1       8=A1  
     9=A1      10=A1      11=A1      12=A2  
 ...... END OF INITIAL ORBITAL SELECTION ......
 STEP CPU TIME =     0.01 TOTAL CPU TIME =        0.0 (    0.0 MIN)
 TOTAL WALL CLOCK TIME=        0.0 SECONDS, CPU UTILIZATION IS  50.00%

                    ----------------------
                    AO INTEGRAL TECHNOLOGY
                    ----------------------
     S,P,L SHELL ROTATED AXIS INTEGRALS, REPROGRAMMED BY
        KAZUYA ISHIMURA (IMS) AND JOSE SIERRA (SYNSTAR).
     S,P,D,L SHELL ROTATED AXIS INTEGRALS PROGRAMMED BY
        KAZUYA ISHIMURA (INSTITUTE FOR MOLECULAR SCIENCE).
     S,P,D,F,G SHELL TO TOTAL QUARTET ANGULAR MOMENTUM SUM 5,
        ERIC PROGRAM BY GRAHAM FLETCHER (ELORET AND NASA ADVANCED
        SUPERCOMPUTING DIVISION, AMES RESEARCH CENTER).
     S,P,D,F,G,L SHELL GENERAL RYS QUADRATURE PROGRAMMED BY
        MICHEL DUPUIS (PACIFIC NORTHWEST NATIONAL LABORATORY).

          --------------------
          2 ELECTRON INTEGRALS
          --------------------

 THE -PK- OPTION IS OFF, THE INTEGRALS ARE NOT IN SUPERMATRIX FORM.
 STORING   15000 INTEGRALS/RECORD ON DISK, USING 12 BYTES/INTEGRAL.
 TWO ELECTRON INTEGRAL EVALUATION REQUIRES   90424 WORDS OF MEMORY.
 II,JST,KST,LST =  1  1  1  1 NREC =         1 INTLOC =    1
 II,JST,KST,LST =  2  1  1  1 NREC =         1 INTLOC =    2
 II,JST,KST,LST =  3  1  1  1 NREC =         1 INTLOC =   34
 II,JST,KST,LST =  4  1  1  1 NREC =         1 INTLOC =  214
 II,JST,KST,LST =  5  1  1  1 NREC =         1 INTLOC = 1189
 II,JST,KST,LST =  6  1  1  1 NREC =         1 INTLOC = 1867
 II,JST,KST,LST =  7  1  1  1 NREC =         1 INTLOC = 2713
 TOTAL NUMBER OF NONZERO TWO-ELECTRON INTEGRALS =                5596
          1 INTEGRAL RECORDS WERE STORED ON DISK FILE  8.
  ...... END OF TWO-ELECTRON INTEGRALS .....
 STEP CPU TIME =     0.02 TOTAL CPU TIME =        0.0 (    0.0 MIN)
 TOTAL WALL CLOCK TIME=        0.0 SECONDS, CPU UTILIZATION IS 100.00%

          --------------------------
                 RHF SCF CALCULATION
          --------------------------

     NUCLEAR ENERGY =         0.8355430251
     MAXIT =   30     NPUNCH=    2
     EXTRAP=T  DAMP=F  SHIFT=F  RSTRCT=F  DIIS=F  DEM=F  SOSCF=T
     DENSITY MATRIX CONV=  1.00E-06
     SOSCF WILL OPTIMIZE      36 ORBITAL ROTATIONS, SOGTOL=   0.250
     MEMORY REQUIRED FOR RHF ITERS=     33224 WORDS.

 ITER EX DEM     TOTAL ENERGY        E CHANGE  DENSITY CHANGE     ORB. GRAD
   1  0  0       -7.8477531084    -7.8477531084   0.373872091   0.000000000
          ---------------START SECOND ORDER SCF---------------
   2  1  0       -7.9677366616    -0.1199835531   0.049836777   0.021022993
   3  2  0       -7.9740696583    -0.0063329968   0.022374871   0.006780643
   4  3  0       -7.9746980470    -0.0006283887   0.002454198   0.000898272
   5  4  0       -7.9747063838    -0.0000083368   0.000369915   0.000191613
   6  5  0       -7.9747065028    -0.0000001190   0.000059067   0.000013536
   7  6  0       -7.9747065036    -0.0000000008   0.000011828   0.000001380
   8  7  0       -7.9747065036    -0.0000000000   0.000000261   0.000000050
   9  8  0       -7.9747065036    -0.0000000000   0.000000000   0.000000008

          -----------------
          DENSITY CONVERGED
          -----------------
     TIME TO FORM FOCK OPERATORS=       0.0 SECONDS (       0.0 SEC/ITER)
     TIME TO SOLVE SCF EQUATIONS=       0.0 SECONDS (       0.0 SEC/ITER)

 FINAL RHF ENERGY IS       -7.9747065036 AFTER   9 ITERATIONS

 LZ VALUE ANALYSIS FOR THE MOS
 ----------------------------------------
 MO     1 (    1) HAS LZ(WEIGHT)= 0.00(100.0%) 
 MO     2 (    2) HAS LZ(WEIGHT)= 0.00(100.0%) 
 MO     3 (    3) HAS LZ(WEIGHT)= 0.00(100.0%) 
 MO     4 (    4) HAS LZ(WEIGHT)=-1.00( 50.0%)  1.00( 50.0%) 
 MO     5 (    4) HAS LZ(WEIGHT)=-1.00( 50.0%)  1.00( 50.0%) 
 MO     6 (    5) HAS LZ(WEIGHT)= 0.00(100.0%) 
 MO     7 (    6) HAS LZ(WEIGHT)= 0.00(100.0%) 
 MO     8 (    7) HAS LZ(WEIGHT)=-1.00( 50.0%)  1.00( 50.0%) 
 MO     9 (    7) HAS LZ(WEIGHT)=-1.00( 50.0%)  1.00( 50.0%) 
 MO    10 (    8) HAS LZ(WEIGHT)= 0.00(100.0%) 
 MO    11 (    9) HAS LZ(WEIGHT)=-2.00( 50.0%)  2.00( 50.0%) 
 MO    12 (    9) HAS LZ(WEIGHT)=-2.00( 50.0%)  2.00( 50.0%) 
 MO    13 (   10) HAS LZ(WEIGHT)=-1.00( 50.0%)  1.00( 50.0%) 
 MO    14 (   10) HAS LZ(WEIGHT)=-1.00( 50.0%)  1.00( 50.0%) 
 MO    15 (   11) HAS LZ(WEIGHT)= 0.00(100.0%) 
 MO    16 (   12) HAS LZ(WEIGHT)= 0.00(100.0%) 
 MO    17 (   13) HAS LZ(WEIGHT)= 0.00(100.0%) 
 MO    18 (   14) HAS LZ(WEIGHT)=-1.00( 50.0%)  1.00( 50.0%) 
 MO    19 (   14) HAS LZ(WEIGHT)=-1.00( 50.0%)  1.00( 50.0%) 
 MO    20 (   15) HAS LZ(WEIGHT)= 0.00(100.0%) 

          ------------
          EIGENVECTORS
          ------------

                      1          2          3          4          5
                   -2.4735    -0.2828     0.0019     0.0562     0.0562
                     A1         A1         A1         B1         B2  
    1  LI 1  S    0.998598  -0.108460  -0.146142  -0.000000  -0.000000
    2  LI 1  S   -0.010100   0.149303  -0.337422  -0.000000  -0.000000
    3  LI 1  X    0.000000  -0.000000  -0.000000   0.039461  -0.000000
    4  LI 1  Y    0.000000  -0.000000  -0.000000  -0.000000   0.039461
    5  LI 1  Z   -0.009495   0.196289  -0.179713  -0.000000  -0.000000
    6  LI 1  S   -0.000042   0.218998   0.938024  -0.000000  -0.000000
    7  LI 1  X    0.000000  -0.000000  -0.000000   0.967417  -0.000000
    8  LI 1  Y    0.000000  -0.000000  -0.000000  -0.000000   0.967417
    9  LI 1  Z    0.004984   0.046482  -0.495541  -0.000000  -0.000000
   10  LI 1 XX    0.008935  -0.000859   0.066866  -0.000000  -0.000000
   11  LI 1 YY    0.008935  -0.000859   0.066866  -0.000000  -0.000000
   12  LI 1 ZZ    0.007055   0.041725   0.077631  -0.000000  -0.000000
   13  LI 1 XY    0.000000  -0.000000  -0.000000  -0.000000  -0.000000
   14  LI 1 XZ    0.000000  -0.000000  -0.000000  -0.030958  -0.000000
   15  LI 1 YZ    0.000000  -0.000000  -0.000000  -0.000000  -0.030958
   16  H  2  S    0.000863   0.273067  -0.060880  -0.000000  -0.000000
   17  H  2  S    0.003906   0.437423  -0.066929  -0.000000  -0.000000
   18  H  2  X    0.000000  -0.000000  -0.000000   0.003895  -0.000000
   19  H  2  Y    0.000000  -0.000000  -0.000000  -0.000000   0.003895
   20  H  2  Z   -0.000860  -0.006764   0.001416  -0.000000  -0.000000

                      6          7          8          9         10
                    0.1480     0.1897     0.2145     0.2145     0.2954
                     A1         A1         B1         B2         A1  
    1  LI 1  S   -0.067723   0.070507   0.000000   0.000000   0.003256
    2  LI 1  S   -0.057182   2.878925   0.000000   0.000000   1.533196
    3  LI 1  X    0.000000  -0.000000   1.668928   0.000000   0.000000
    4  LI 1  Y    0.000000  -0.000000   0.000000   1.668928   0.000000
    5  LI 1  Z   -0.700589  -0.772189   0.000000   0.000000   1.433576
    6  LI 1  S    0.611151  -2.343196   0.000000   0.000000  -0.668933
    7  LI 1  X    0.000000  -0.000000  -1.364724   0.000000   0.000000
    8  LI 1  Y    0.000000  -0.000000   0.000000  -1.364724   0.000000
    9  LI 1  Z    1.430560   0.343163   0.000000   0.000000  -0.629318
   10  LI 1 XX    0.033796  -0.294641   0.000000   0.000000  -0.019792
   11  LI 1 YY    0.033796  -0.294641   0.000000   0.000000  -0.019792
   12  LI 1 ZZ    0.056877  -0.251574   0.000000   0.000000  -0.265445
   13  LI 1 XY    0.000000  -0.000000   0.000000   0.000000   0.000000
   14  LI 1 XZ    0.000000  -0.000000  -0.074255   0.000000   0.000000
   15  LI 1 YZ    0.000000  -0.000000   0.000000  -0.074255   0.000000
   16  H  2  S   -0.092443   0.020895   0.000000   0.000000  -0.085073
   17  H  2  S   -0.654846   0.282594   0.000000   0.000000  -0.881677
   18  H  2  X    0.000000  -0.000000   0.003912   0.000000   0.000000
   19  H  2  Y    0.000000  -0.000000   0.000000   0.003912   0.000000
   20  H  2  Z    0.007193  -0.001807   0.000000   0.000000  -0.021749

                     11         12         13         14         15
                    0.5690     0.5690     0.5695     0.5695     0.7093
                     A2         A1         B1         B2         A1  
    1  LI 1  S    0.000000  -0.000000  -0.000000  -0.000000   0.000700
    2  LI 1  S    0.000000  -0.000000  -0.000000  -0.000000  -0.117810
    3  LI 1  X    0.000000  -0.000000   0.122394  -0.000000   0.000000
    4  LI 1  Y    0.000000  -0.000000  -0.000000   0.122394   0.000000
    5  LI 1  Z    0.000000  -0.000000  -0.000000  -0.000000   0.858418
    6  LI 1  S    0.000000  -0.000000  -0.000000  -0.000000   0.396449
    7  LI 1  X    0.000000  -0.000000  -0.070898  -0.000000   0.000000
    8  LI 1  Y    0.000000  -0.000000  -0.000000  -0.070898   0.000000
    9  LI 1  Z    0.000000  -0.000000  -0.000000  -0.000000   0.003494
   10  LI 1 XX    0.000000   0.866025  -0.000000  -0.000000  -0.424692
   11  LI 1 YY    0.000000  -0.866025  -0.000000  -0.000000  -0.424692
   12  LI 1 ZZ    0.000000  -0.000000  -0.000000  -0.000000   1.404624
   13  LI 1 XY    1.000000  -0.000000  -0.000000  -0.000000   0.000000
   14  LI 1 XZ    0.000000  -0.000000   0.992949  -0.000000   0.000000
   15  LI 1 YZ    0.000000  -0.000000  -0.000000   0.992949   0.000000
   16  H  2  S    0.000000  -0.000000  -0.000000  -0.000000   0.076231
   17  H  2  S    0.000000  -0.000000  -0.000000  -0.000000  -1.391991
   18  H  2  X    0.000000  -0.000000   0.026122  -0.000000   0.000000
   19  H  2  Y    0.000000  -0.000000  -0.000000   0.026122   0.000000
   20  H  2  Z    0.000000  -0.000000  -0.000000  -0.000000  -0.009931

                     16         17         18         19         20
                    1.1783     1.3331     2.5130     2.5130     2.7459
                     A1         A1         B1         B2         A1  
    1  LI 1  S    0.079585   0.096712  -0.000000  -0.000000  -0.001862
    2  LI 1  S    8.211427   4.848834  -0.000000  -0.000000  -0.390794
    3  LI 1  X   -0.000000  -0.000000  -0.089841  -0.000000   0.000000
    4  LI 1  Y   -0.000000  -0.000000  -0.000000  -0.089841   0.000000
    5  LI 1  Z    0.034001   0.224704  -0.000000  -0.000000   0.559895
    6  LI 1  S   -2.623893  -1.176937  -0.000000  -0.000000   0.187945
    7  LI 1  X   -0.000000  -0.000000   0.020737  -0.000000   0.000000
    8  LI 1  Y   -0.000000  -0.000000  -0.000000   0.020737   0.000000
    9  LI 1  Z   -0.093771   0.217040  -0.000000  -0.000000  -0.141429
   10  LI 1 XX   -2.802439  -1.565431  -0.000000  -0.000000   0.067063
   11  LI 1 YY   -2.802439  -1.565431  -0.000000  -0.000000   0.067063
   12  LI 1 ZZ   -2.592824  -1.587965  -0.000000  -0.000000   0.680637
   13  LI 1 XY   -0.000000  -0.000000  -0.000000  -0.000000   0.000000
   14  LI 1 XZ   -0.000000  -0.000000  -0.162511  -0.000000   0.000000
   15  LI 1 YZ   -0.000000  -0.000000  -0.000000  -0.162511   0.000000
   16  H  2  S   -0.572194   1.259731  -0.000000  -0.000000   0.071398
   17  H  2  S    0.467240  -1.462340  -0.000000  -0.000000  -0.636829
   18  H  2  X   -0.000000  -0.000000   1.011236  -0.000000   0.000000
   19  H  2  Y   -0.000000  -0.000000  -0.000000   1.011236   0.000000
   20  H  2  Z   -0.009892  -0.031172  -0.000000  -0.000000   1.075925
 ...... END OF RHF CALCULATION ......
 STEP CPU TIME =     0.00 TOTAL CPU TIME =        0.0 (    0.0 MIN)
 TOTAL WALL CLOCK TIME=        0.0 SECONDS, CPU UTILIZATION IS  75.00%

     ----------------------------------------------------------------
     PROPERTY VALUES FOR THE RHF   SELF-CONSISTENT FIELD WAVEFUNCTION
     ----------------------------------------------------------------

          -----------------
          ENERGY COMPONENTS
          -----------------

         WAVEFUNCTION NORMALIZATION =       1.0000000000

                ONE ELECTRON ENERGY =     -12.1079237606
                TWO ELECTRON ENERGY =       3.2976742319
           NUCLEAR REPULSION ENERGY =       0.8355430251
                                      ------------------
                       TOTAL ENERGY =      -7.9747065036

 ELECTRON-ELECTRON POTENTIAL ENERGY =       3.2976742319
  NUCLEUS-ELECTRON POTENTIAL ENERGY =     -20.0215055021
   NUCLEUS-NUCLEUS POTENTIAL ENERGY =       0.8355430251
                                      ------------------
             TOTAL POTENTIAL ENERGY =     -15.8882882451
               TOTAL KINETIC ENERGY =       7.9135817415
                 VIRIAL RATIO (V/T) =       2.0077240324

  ...... PI ENERGY ANALYSIS ......

 ENERGY ANALYSIS:
            FOCK ENERGY=     -5.5125753128
          BARE H ENERGY=    -12.1079237606
     ELECTRONIC ENERGY =     -8.8102495367
         KINETIC ENERGY=      7.9135817415
          N-N REPULSION=      0.8355430251
           TOTAL ENERGY=     -7.9747065116
        SIGMA PART(1+2)=     -8.8102495367
               (K,V1,2)=      7.9135817415    -20.0215055021      3.2976742239
           PI PART(1+2)=      0.0000000000
               (K,V1,2)=      0.0000000000      0.0000000000      0.0000000000
  SIGMA SKELETON, ERROR=     -7.9747065116      0.0000000000
             MIXED PART= 0.00000E+00 0.00000E+00 0.00000E+00 0.00000E+00
 ...... END OF PI ENERGY ANALYSIS ......

          ---------------------------------------
          MULLIKEN AND LOWDIN POPULATION ANALYSES
          ---------------------------------------

               ----- POPULATIONS IN EACH AO -----
                             MULLIKEN      LOWDIN
              1  LI 1  S      1.99822     1.98290
              2  LI 1  S      0.18181     0.16720
              3  LI 1  X      0.00000     0.00000
              4  LI 1  Y      0.00000     0.00000
              5  LI 1  Z      0.23049     0.23229
              6  LI 1  S      0.26664     0.22796
              7  LI 1  X      0.00000     0.00000
              8  LI 1  Y      0.00000     0.00000
              9  LI 1  Z      0.04570     0.10942
             10  LI 1 XX      0.00134     0.03132
             11  LI 1 YY      0.00134     0.03132
             12  LI 1 ZZ      0.05354     0.15918
             13  LI 1 XY      0.00000     0.00000
             14  LI 1 XZ      0.00000     0.00000
             15  LI 1 YZ      0.00000     0.00000
             16  H  2  S      0.39030     0.39094
             17  H  2  S      0.83002     0.66722
             18  H  2  X      0.00000     0.00000
             19  H  2  Y      0.00000     0.00000
             20  H  2  Z      0.00062     0.00025

          ----- MULLIKEN ATOMIC OVERLAP POPULATIONS -----
          (OFF-DIAGONAL ELEMENTS NEED TO BE MULTIPLIED BY 2)

             1           2

    1    2.4045951
    2    0.3744705   0.8464640

          TOTAL MULLIKEN AND LOWDIN ATOMIC POPULATIONS
       ATOM         MULL.POP.    CHARGE          LOW.POP.     CHARGE
    1 LI            2.779066    0.220934         2.941594    0.058406
    2 H             1.220934   -0.220934         1.058406   -0.058406

          ---------------------
          ELECTROSTATIC MOMENTS
          ---------------------

 POINT   1           X           Y           Z (BOHR)    CHARGE
                 0.000000    0.000000    0.450979        0.00 (A.U.)
         DX          DY          DZ         /D/  (DEBYE)
     0.000000    0.000000   -6.536595    6.536595
 ...... END OF PROPERTY EVALUATION ......
 STEP CPU TIME =     0.01 TOTAL CPU TIME =        0.0 (    0.0 MIN)
 TOTAL WALL CLOCK TIME=        0.0 SECONDS, CPU UTILIZATION IS 100.00%

 DETERMINANT CI OPTIONS   NRNFG   NPFLG
 INTEGRAL TRANSFORMATION    1       0
 DIAGONALIZE HAMILTONIAN    1       0
 FORM 1E- DENSITY MATRIX    1       0
 FORM 2E- DENSITY MATRIX    0       0

     --------------------------------------------------
          AMES LABORATORY DETERMINANTAL FULL CI
     PROGRAM WRITTEN BY JOE IVANIC AND KLAUS RUEDENBERG
     --------------------------------------------------

 THE POINT GROUP                  =   C2V     
 THE STATE SYMMETRY               =   A1      
 NUMBER OF CORE ORBITALS          =    0
 NUMBER OF ACTIVE ORBITALS        =   20
 NUMBER OF ALPHA ELECTRONS        =    2 (   2 ACTIVE)
 NUMBER OF BETA ELECTRONS         =    2 (   2 ACTIVE)
 NUMBER OF OCCUPIED ORBITALS      =   20
 NUMBER OF CI STATES REQUESTED    =    1
 NUMBER OF CI STARTING VECTORS    =    1
 MAX. NO. OF CI EXPANSION VECTORS =   10
 SIZE OF INITIAL CI GUESS MATRIX  =  300
 MAX. NO. OF CI ITERS/STATE       =  100
 CI DIAGONALIZATION CRITERION     = 1.00E-06
 CI PROPERTIES WILL BE FOUND FOR ROOT NUMBER   1
 1E- DENSITY MATRIX OPTIONS ARE 1

 CORRELATION ENERGY ANALYSIS      =    F

 SYMMETRIES FOR THE   0 CORE,  20 ACTIVE ARE

   ACTIVE= A1    A1    A1    B1    B2    A1    A1    B1    B2    A1  
           A2    A1    B1    B2    A1    A1    A1    B1    B2    A1  

     --------------------------------------------
     PARTIAL TWO ELECTRON INTEGRAL TRANSFORMATION
     --------------------------------------------

 NUMBER OF CORE MOLECULAR ORBITALS     =    0
 NUMBER OF OCCUPIED MOLECULAR ORBITALS =   20
 TOTAL NUMBER OF MOLECULAR ORBITALS    =   20
 TOTAL NUMBER OF ATOMIC ORBITALS       =   20
 THRESHOLD FOR KEEPING TRANSFORMED 2E- INTEGRALS = 1.000E-09
 AO INTEGRALS WILL BE READ IN FROM DISK...

 PLAN A: REQUIREMENTS FOR FULLY IN-MEMORY TRANSFORMATION:
 # OF WORDS AVAILABLE =              1000000
 # OF WORDS NEEDED    =               146042

 CHOOSING IN MEMORY PARTIAL TRANSFORMATION...
 TOTAL NUMBER OF TRANSFORMED 2E- INTEGRALS KEPT =         5962
 ... END OF INTEGRAL TRANSFORMATION ...
 STEP CPU TIME =     0.00 TOTAL CPU TIME =        0.0 (    0.0 MIN)
 TOTAL WALL CLOCK TIME=        0.0 SECONDS, CPU UTILIZATION IS  80.00%

     --------------------------------------------------
          AMES LABORATORY DETERMINANTAL FULL CI
     PROGRAM WRITTEN BY JOE IVANIC AND KLAUS RUEDENBERG
     --------------------------------------------------

 THE NUMBER OF DETERMINANTS HAVING SPACE SYMMETRY A1 
 IN POINT GROUP C2V  WITH SZ=  0.0 IS           9826
 THE DETERMINANT FULL CI REQUIRES          451749 WORDS
 INITIAL CI VECTOR GUESS TIME  :          0.0
 INITIAL FULL CI ITERATION TIME:          0.0

 ITERATION      ENERGY           GRADIENT
     0       -7.9997213285     0.12376789
     1       -8.0028294379     0.00857496
     2       -8.0029014508     0.00382870
     3       -8.0029101283     0.00110044
     4       -8.0029117179     0.00051454
     5       -8.0029120191     0.00019349
     6       -8.0029120457     0.00004603
     7       -8.0029120474     0.00001276
     8       -8.0029120475     0.00000318
     9       -8.0029120475     0.00000067

 CONVERGED STATE    1 ENERGY=       -8.0029120475 IN    9 ITERS

 ALL STATES CONVERGED.

 CI EIGENVECTORS WILL BE LABELED IN GROUP=C2V     
 PRINTING CI COEFFICIENTS LARGER THAN 5.000E-02

 STATE   1  ENERGY=        -8.0029120475  S=  0.00  SZ=  0.00  SPACE SYM=A1  

        ALPHA         |        BETA          | CI COEFFICIENT
----------------------|----------------------|---------------
 11000000000000000000 | 11000000000000000000 |   0.9835644294
 10000000010000000000 | 10000000010000000000 |  -0.0645588719
 10000100000000000000 | 10000100000000000000 |  -0.0592316766
 ..... DONE WITH DETERMINANT CI COMPUTATION .....
 STEP CPU TIME =     0.33 TOTAL CPU TIME =        0.4 (    0.0 MIN)
 TOTAL WALL CLOCK TIME=        0.5 SECONDS, CPU UTILIZATION IS  77.08%

     ---------------------------
     ONE PARTICLE DENSITY MATRIX
     ---------------------------

 DENSITY MATRIX WILL BE SAVED FOR   1-TH STATE WITH S= 0.00

 CI EIGENSTATE   1 TOTAL ENERGY =       -8.0029120475

          NATURAL ORBITALS IN ATOMIC ORBITAL BASIS
          ----------------------------------------

                      1          2          3          4          5
                    1.9998     1.9412     0.0474     0.0045     0.0029
                     A1         A1         A1         A1         B1  
    1  LI 1  S    0.999141  -0.107759   0.121287   0.054869   0.000000
    2  LI 1  S   -0.007192   0.169096  -0.549075   1.046171   0.000000
    3  LI 1  X    0.000000  -0.000000  -0.000000   0.000000   0.744762
    4  LI 1  Y    0.000000  -0.000000  -0.000000   0.000000   0.000000
    5  LI 1  Z   -0.009883   0.190093  -0.410942   1.242903   0.000000
    6  LI 1  S   -0.002465   0.237473  -0.457786  -0.768983   0.000000
    7  LI 1  X    0.000000  -0.000000  -0.000000   0.000000  -0.082853
    8  LI 1  Y    0.000000  -0.000000  -0.000000   0.000000   0.000000
    9  LI 1  Z    0.004570   0.041953  -0.111028  -0.723886   0.000000
   10  LI 1 XX    0.007996   0.001627   0.026659  -0.182379   0.000000
   11  LI 1 YY    0.007996   0.001627   0.026659  -0.182379   0.000000
   12  LI 1 ZZ    0.006146   0.038105  -0.035527   0.604164   0.000000
   13  LI 1 XY    0.000000  -0.000000  -0.000000   0.000000   0.000000
   14  LI 1 XZ    0.000000  -0.000000  -0.000000   0.000000   0.556193
   15  LI 1 YZ    0.000000  -0.000000  -0.000000   0.000000   0.000000
   16  H  2  S   -0.000831   0.288625   0.608947   0.360867   0.000000
   17  H  2  S    0.001236   0.406929   0.531067  -1.141918   0.000000
   18  H  2  X    0.000000  -0.000000  -0.000000   0.000000   0.372215
   19  H  2  Y    0.000000  -0.000000  -0.000000   0.000000   0.000000
   20  H  2  Z   -0.000806  -0.005692   0.007763  -0.309211   0.000000

                      6          7          8          9         10
                    0.0029     0.0006     0.0002     0.0002     0.0001
                     B2         A1         B1         B2         A1  
    1  LI 1  S    0.000000   0.027906   0.000000   0.000000   0.051299
    2  LI 1  S    0.000000  -0.274865   0.000000   0.000000   2.637251
    3  LI 1  X    0.000000  -0.000000  -0.571291   0.000000   0.000000
    4  LI 1  Y    0.744762  -0.000000   0.000000  -0.571291   0.000000
    5  LI 1  Z    0.000000   0.244769   0.000000   0.000000   0.792806
    6  LI 1  S    0.000000  -0.598776   0.000000   0.000000  -1.337488
    7  LI 1  X    0.000000  -0.000000   0.130068   0.000000   0.000000
    8  LI 1  Y   -0.082853  -0.000000   0.000000   0.130068   0.000000
    9  LI 1  Z    0.000000  -0.414685   0.000000   0.000000  -0.636150
   10  LI 1 XX    0.000000  -0.020976   0.000000   0.000000  -0.566970
   11  LI 1 YY    0.000000  -0.020976   0.000000   0.000000  -0.566970
   12  LI 1 ZZ    0.000000   0.283364   0.000000   0.000000  -0.361213
   13  LI 1 XY    0.000000  -0.000000   0.000000   0.000000   0.000000
   14  LI 1 XZ    0.000000  -0.000000  -0.197969   0.000000   0.000000
   15  LI 1 YZ    0.556193  -0.000000   0.000000  -0.197969   0.000000
   16  H  2  S    0.000000  -1.142987   0.000000   0.000000   0.077760
   17  H  2  S    0.000000   1.346019   0.000000   0.000000  -0.407209
   18  H  2  X    0.000000  -0.000000   0.918467   0.000000   0.000000
   19  H  2  Y    0.372215  -0.000000   0.000000   0.918467   0.000000
   20  H  2  Z    0.000000  -0.025112   0.000000   0.000000   0.898434

                     11         12         13         14         15
                    0.0001     0.0000     0.0000     0.0000     0.0000
                     A1         B1         B2         A1         A1  
    1  LI 1  S    0.083767  -0.000000  -0.000000   0.089617   0.000000
    2  LI 1  S    7.573486  -0.000000  -0.000000   5.895253   0.000000
    3  LI 1  X   -0.000000  -1.381701  -0.000000   0.000000   0.000000
    4  LI 1  Y   -0.000000  -0.000000  -1.381701   0.000000   0.000000
    5  LI 1  Z   -1.010912  -0.000000  -0.000000   0.903688   0.000000
    6  LI 1  S   -3.127626  -0.000000  -0.000000  -1.084757   0.000000
    7  LI 1  X   -0.000000   1.445357  -0.000000   0.000000   0.000000
    8  LI 1  Y   -0.000000  -0.000000   1.445357   0.000000   0.000000
    9  LI 1  Z    0.341198  -0.000000  -0.000000  -0.061768   0.000000
   10  LI 1 XX   -2.162684  -0.000000  -0.000000  -2.331786   0.866025
   11  LI 1 YY   -2.162684  -0.000000  -0.000000  -2.331786  -0.866025
   12  LI 1 ZZ   -2.269669  -0.000000  -0.000000  -2.028530   0.000000
   13  LI 1 XY   -0.000000  -0.000000  -0.000000   0.000000   0.000000
   14  LI 1 XZ   -0.000000   0.443747  -0.000000   0.000000   0.000000
   15  LI 1 YZ   -0.000000  -0.000000   0.443747   0.000000   0.000000
   16  H  2  S   -0.123054  -0.000000  -0.000000   0.263738   0.000000
   17  H  2  S    0.603075  -0.000000  -0.000000  -0.887242   0.000000
   18  H  2  X   -0.000000  -0.135871  -0.000000   0.000000   0.000000
   19  H  2  Y   -0.000000  -0.000000  -0.135871   0.000000   0.000000
   20  H  2  Z   -0.298805  -0.000000  -0.000000  -0.035069   0.000000

                     16         17         18         19         20
                    0.0000     0.0000     0.0000     0.0000     0.0000
                     A2         B1         B2         A1         A1  
    1  LI 1  S    0.000000   0.000000   0.000000   0.006277  -0.097291
    2  LI 1  S    0.000000   0.000000   0.000000  -0.397573  -1.076440
    3  LI 1  X    0.000000  -0.140663   0.000000  -0.000000  -0.000000
    4  LI 1  Y    0.000000   0.000000  -0.140663  -0.000000  -0.000000
    5  LI 1  Z    0.000000   0.000000   0.000000  -0.134472   0.141855
    6  LI 1  S    0.000000   0.000000   0.000000   0.331330   1.276186
    7  LI 1  X    0.000000   0.831253   0.000000  -0.000000  -0.000000
    8  LI 1  Y    0.000000   0.000000   0.831253  -0.000000  -0.000000
    9  LI 1  Z    0.000000   0.000000   0.000000   0.990624  -0.817084
   10  LI 1 XX    0.000000   0.000000   0.000000  -0.249744  -0.221949
   11  LI 1 YY    0.000000   0.000000   0.000000  -0.249744  -0.221949
   12  LI 1 ZZ    0.000000   0.000000   0.000000   1.317622   0.494380
   13  LI 1 XY    1.000000   0.000000   0.000000  -0.000000  -0.000000
   14  LI 1 XZ    0.000000  -0.688023   0.000000  -0.000000  -0.000000
   15  LI 1 YZ    0.000000   0.000000  -0.688023  -0.000000  -0.000000
   16  H  2  S    0.000000   0.000000   0.000000   0.105656  -0.164482
   17  H  2  S    0.000000   0.000000   0.000000  -1.128839   0.165673
   18  H  2  X    0.000000   0.150742   0.000000  -0.000000  -0.000000
   19  H  2  Y    0.000000   0.000000   0.150742  -0.000000  -0.000000
   20  H  2  Z    0.000000   0.000000   0.000000   0.392599   0.105791
 ..... DONE WITH ONE PARTICLE DENSITY MATRIX .....
 STEP CPU TIME =     0.00 TOTAL CPU TIME =        0.4 (    0.0 MIN)
 TOTAL WALL CLOCK TIME=        0.5 SECONDS, CPU UTILIZATION IS  77.08%

     --------------------------------------------------------
     ALDET CI PROPERTIES...FOR THE WAVEFUNCTION OF STATE    1
               USING THE EXPECTATION VALUE DENSITY
     --------------------------------------------------------

          -----------------
          ENERGY COMPONENTS
          -----------------

         WAVEFUNCTION NORMALIZATION =       1.0000000000

                ONE ELECTRON ENERGY =     -12.0824751204
                TWO ELECTRON ENERGY =       3.2440200477
           NUCLEAR REPULSION ENERGY =       0.8355430251
                                      ------------------
                       TOTAL ENERGY =      -8.0029120475

 ELECTRON-ELECTRON POTENTIAL ENERGY =       3.2440200477
  NUCLEUS-ELECTRON POTENTIAL ENERGY =     -20.0388545864
   NUCLEUS-NUCLEUS POTENTIAL ENERGY =       0.8355430251
                                      ------------------
             TOTAL POTENTIAL ENERGY =     -15.9592915135
               TOTAL KINETIC ENERGY =       7.9563794660
                 VIRIAL RATIO (V/T) =       2.0058484618

          ---------------------------------------
          MULLIKEN AND LOWDIN POPULATION ANALYSES
          ---------------------------------------

               ----- POPULATIONS IN EACH AO -----
                             MULLIKEN      LOWDIN
              1  LI 1  S      1.99814     1.98337
              2  LI 1  S      0.22502     0.18725
              3  LI 1  X      0.00158     0.00124
              4  LI 1  Y      0.00158     0.00124
              5  LI 1  Z      0.20831     0.20697
              6  LI 1  S      0.30449     0.25530
              7  LI 1  X     -0.00012     0.00022
              8  LI 1  Y     -0.00012     0.00022
              9  LI 1  Z      0.03912     0.09570
             10  LI 1 XX      0.00213     0.04013
             11  LI 1 YY      0.00213     0.04013
             12  LI 1 ZZ      0.04938     0.15844
             13  LI 1 XY      0.00001     0.00001
             14  LI 1 XZ      0.00099     0.00099
             15  LI 1 YZ      0.00099     0.00099
             16  H  2  S      0.41740     0.40639
             17  H  2  S      0.74614     0.61845
             18  H  2  X      0.00071     0.00072
             19  H  2  Y      0.00071     0.00072
             20  H  2  Z      0.00141     0.00155

          ----- MULLIKEN ATOMIC OVERLAP POPULATIONS -----
          (OFF-DIAGONAL ELEMENTS NEED TO BE MULTIPLIED BY 2)

             1           2

    1    2.5081004
    2    0.3255163   0.8408670

          TOTAL MULLIKEN AND LOWDIN ATOMIC POPULATIONS
       ATOM         MULL.POP.    CHARGE          LOW.POP.     CHARGE
    1 LI            2.833617    0.166383         2.972183    0.027817
    2 H             1.166383   -0.166383         1.027817   -0.027817

          ---------------------
          ELECTROSTATIC MOMENTS
          ---------------------

 POINT   1           X           Y           Z (BOHR)    CHARGE
                 0.000000    0.000000    0.450979        0.00 (A.U.)
         DX          DY          DZ         /D/  (DEBYE)
     0.000000    0.000000   -6.026668    6.026668
 ...... END OF PROPERTY EVALUATION ......
 STEP CPU TIME =     0.00 TOTAL CPU TIME =        0.4 (    0.0 MIN)
 TOTAL WALL CLOCK TIME=        0.5 SECONDS, CPU UTILIZATION IS  77.08%
               580000  WORDS OF DYNAMIC MEMORY USED
 EXECUTION OF GAMESS TERMINATED NORMALLY Thu Jan 17 17:46:32 2019
 DDI: 263640 bytes (0.3 MB / 0 MWords) used by master data server.

 ----------------------------------------
 CPU timing information for all processes
 ========================================
 0: 0.295 + 0.83 = 0.379
 1: 0.12 + 0.72 = 0.84
 ----------------------------------------
 ddikick.x: exited gracefully.
unset echo
----- accounting info -----
Files used on the master node bach.ad64.riken.go.jp were:
-rw-------@ 1 maho  staff      280  1 17 17:46 .//LiH.631g/1.9/LiH.631g.fullCI.1.9.gamess.F05
-rw-r--r--@ 1 maho  staff   180016  1 17 17:46 .//LiH.631g/1.9/LiH.631g.fullCI.1.9.gamess.F08
-rw-r--r--@ 1 maho  staff   181704  1 17 17:46 .//LiH.631g/1.9/LiH.631g.fullCI.1.9.gamess.F09
-rw-r--r--@ 1 maho  staff  1832320  1 17 17:46 .//LiH.631g/1.9/LiH.631g.fullCI.1.9.gamess.F10
-rw-r--r--@ 1 maho  staff    78640  1 17 17:46 .//LiH.631g/1.9/LiH.631g.fullCI.1.9.gamess.F12
-rw-r--r--@ 1 maho  staff    14499  1 17 17:46 .//LiH.631g/1.9/LiH.631g.fullCI.1.9.gamess.dat
-rw-------@ 1 maho  staff      280  1 17 17:46 .//LiH.631g/1.9/LiH.631g.fullCI.1.9.gamess.inp
-rw-r--r--@ 1 maho  staff    42514  1 17 17:46 .//LiH.631g/1.9/LiH.631g.fullCI.1.9.gamess.log
ls: No match.
ls: No match.
ls: No match.
2019年 1月17日 木曜日 17時46分35秒 JST
0.422u 0.268s 0:03.71 18.3%	0+0k 0+0io 0pf+0w
