----- GAMESS execution script 'rungms' -----
This job is running on host localhost
under operating system Linux at Thu Jan 17 17:39:30 JST 2019
Available scratch disk space (Kbyte units) at beginning of the job is
Filesystem     1K-blocks      Used Available Use% Mounted on
/dev/sda1      895286904 141740988 708044888  17% /
GAMESS temporary binary files will be written to .
GAMESS supplementary output files will be written to .
Copying input file N2.SV/0.9/N2.SV.fullCI.0.9.gamess.inp to your run's scratch directory...
cp N2.SV/0.9/N2.SV.fullCI.0.9.gamess.inp ./N2.SV/0.9/N2.SV.fullCI.0.9.gamess.F05
unset echo
/work/pubchem/pm6/pkg/gamess_intel/ddikick.x /work/pubchem/pm6/pkg/gamess_intel/gamess.00.x N2.SV/0.9/N2.SV.fullCI.0.9.gamess -ddi 12 12 localhost localhost localhost localhost localhost localhost localhost localhost localhost localhost localhost localhost -scr .

 Distributed Data Interface kickoff program.
 Initiating 12 compute processes on 12 nodes to run the following command:
 /work/pubchem/pm6/pkg/gamess_intel/gamess.00.x N2.SV/0.9/N2.SV.fullCI.0.9.gamess 

          ******************************************************
          *         GAMESS VERSION =  5 DEC 2014 (R1)          *
          *             FROM IOWA STATE UNIVERSITY             *
          * M.W.SCHMIDT, K.K.BALDRIDGE, J.A.BOATZ, S.T.ELBERT, *
          *   M.S.GORDON, J.H.JENSEN, S.KOSEKI, N.MATSUNAGA,   *
          *          K.A.NGUYEN, S.J.SU, T.L.WINDUS,           *
          *       TOGETHER WITH M.DUPUIS, J.A.MONTGOMERY       *
          *         J.COMPUT.CHEM.  14, 1347-1363(1993)        *
          **************** 64 BIT INTEL VERSION ****************

  SINCE 1993, STUDENTS AND POSTDOCS WORKING AT IOWA STATE UNIVERSITY
  AND ALSO IN THEIR VARIOUS JOBS AFTER LEAVING ISU HAVE MADE IMPORTANT
  CONTRIBUTIONS TO THE CODE:
     IVANA ADAMOVIC, CHRISTINE AIKENS, YURI ALEXEEV, POOJA ARORA,
     ANDREY ASADCHEV, ROB BELL, PRADIPTA BANDYOPADHYAY, JONATHAN BENTZ,
     BRETT BODE, KURT BRORSEN, CALEB CARLIN, GALINA CHABAN, WEI CHEN,
     CHEOL HO CHOI, PAUL DAY, ALBERT DEFUSCO, NUWAN DESILVA, TIM DUDLEY,
     DMITRI FEDOROV, GRAHAM FLETCHER, MARK FREITAG, KURT GLAESEMANN,
     DAN KEMP, GRANT MERRILL, NORIYUKI MINEZAWA, JONATHAN MULLIN,
     TAKESHI NAGATA, SEAN NEDD, HEATHER NETZLOFF, BOSILJKA NJEGIC, RYAN OLSON,
     MIKE PAK, SPENCER PRUITT, LUKE ROSKOP, JIM SHOEMAKER, LYUDMILA SLIPCHENKO,
     TONY SMITH, SAROM SOK, JIE SONG, TETSUYA TAKETSUGU, SIMON WEBB,
     PENG XU, SOOHAENG YOO, FEDERICO ZAHARIEV

  ADDITIONAL CODE HAS BEEN PROVIDED BY COLLABORATORS IN OTHER GROUPS:
     IOWA STATE UNIVERSITY:
          JOE IVANIC, AARON WEST, LAIMUTIS BYTAUTAS, KLAUS RUEDENBERG
     UNIVERSITY OF TOKYO: KIMIHIKO HIRAO, TAKAHITO NAKAJIMA,
          TAKAO TSUNEDA, MUNEAKI KAMIYA, SUSUMU YANAGISAWA,
          KIYOSHI YAGI, MAHITO CHIBA, SEIKEN TOKURA, NAOAKI KAWAKAMI
     UNIVERSITY OF AARHUS: FRANK JENSEN
     UNIVERSITY OF IOWA: VISVALDAS KAIRYS, HUI LI
     NATIONAL INST. OF STANDARDS AND TECHNOLOGY: WALT STEVENS, DAVID GARMER
     UNIVERSITY OF PISA: BENEDETTA MENNUCCI, JACOPO TOMASI
     UNIVERSITY OF MEMPHIS: HENRY KURTZ, PRAKASHAN KORAMBATH
     UNIVERSITY OF ALBERTA: TOBY ZENG, MARIUSZ KLOBUKOWSKI
     UNIVERSITY OF NEW ENGLAND: MARK SPACKMAN
     MIE UNIVERSITY: HIROAKI UMEDA
     NAT. INST. OF ADVANCED INDUSTRIAL SCIENCE AND TECHNOLOGY: KAZUO KITAURA
     MICHIGAN STATE UNIVERSITY:
          KAROL KOWALSKI, MARTA WLOCH, JEFFREY GOUR, JESSE LUTZ,
          WEI LI, PIOTR PIECUCH
     UNIVERSITY OF SILESIA: MONIKA MUSIAL, STANISLAW KUCHARSKI
     FACULTES UNIVERSITAIRES NOTRE-DAME DE LA PAIX:
          OLIVIER QUINET, BENOIT CHAMPAGNE
     UNIVERSITY OF CALIFORNIA - SANTA BARBARA: BERNARD KIRTMAN
     INSTITUTE FOR MOLECULAR SCIENCE:
          KAZUYA ISHIMURA, MICHIO KATOUDA, AND SHIGERU NAGASE
     UNIVERSITY OF NOTRE DAME: ANNA POMOGAEVA, DAN CHIPMAN
     KYUSHU UNIVERSITY:
          HARUYUKI NAKANO,
          FENG LONG GU, JACEK KORCHOWIEC, MARCIN MAKOWSKI, AND YURIKO AOKI,
          HIROTOSHI MORI AND EISAKU MIYOSHI
     PENNSYLVANIA STATE UNIVERSITY:
          TZVETELIN IORDANOV, CHET SWALINA, JONATHAN SKONE,
          SHARON HAMMES-SCHIFFER
     WASEDA UNIVERSITY:
          MASATO KOBAYASHI, TOMOKO AKAMA, TSUGUKI TOUMA,
          TAKESHI YOSHIKAWA, YASUHIRO IKABATA, HIROMI NAKAI
     NANJING UNIVERSITY: SHUHUA LI
     UNIVERSITY OF NEBRASKA:
          PEIFENG SU, DEJUN SI, NANDUN THELLAMUREGE, YALI WANG, HUI LI
     UNIVERSITY OF ZURICH: ROBERTO PEVERATI, KIM BALDRIDGE
     N. COPERNICUS UNIVERSITY AND JACKSON STATE UNIVERSITY:
          MARIA BARYSZ
     UNIVERSITY OF COPENHAGEN: CASPER STEINMANN
     TOKYO INSTITUTE OF TECHNOLOGY: HIROYA NAKATA
     NAGOYA UNIVERSITY: YOSHIO NISHIMOTO, STEPHAN IRLE


 PARALLEL VERSION RUNNING ON       12 PROCESSORS IN       12 NODES.

 EXECUTION OF GAMESS BEGUN Thu Jan 17 17:39:30 2019

            ECHO OF THE FIRST FEW INPUT CARDS -
 INPUT CARD> $CONTRL SCFTYP=RHF CITYP=ALDET $END                                            
 INPUT CARD> $GUESS GUESS=HUCKEL $END                                                       
 INPUT CARD> $SYSTEM MWORDS=300 $END                                                        
 INPUT CARD> $CIDET SZ=0 GROUP=C2V NCORE=2 NACT=16 NELS=10 NSTGSS=6 $END                    
 INPUT CARD> $DATA                                                                          
 INPUT CARD>N2...HF...Double-zeta basis                                                     
 INPUT CARD>Cnv   2                                                                         
 INPUT CARD>                                                                                
 INPUT CARD>N     7.0    0.0      0.0     0.0                                               
 INPUT CARD>S   7                                                                           
 INPUT CARD>  1   5909.0000000              0.0011900                                       
 INPUT CARD>  2    887.5000000              0.0090990                                       
 INPUT CARD>  3    204.7000000              0.0441450                                       
 INPUT CARD>  4     59.8400000              0.1504640                                       
 INPUT CARD>  5     20.0000000              0.3567410                                       
 INPUT CARD>  6      7.1930000              0.4465330                                       
 INPUT CARD>  7      2.6860000              0.1456030                                       
 INPUT CARD>S   2                                                                           
 INPUT CARD>  1      7.1930000             -0.1604050                                       
 INPUT CARD>  2      0.7000000              1.0582150                                       
 INPUT CARD>S   1                                                                           
 INPUT CARD>  1      0.2133000              1.0000000                                       
 INPUT CARD>P   4                                                                           
 INPUT CARD>  1     26.7900000              0.0182540                                       
 INPUT CARD>  2      5.9560000              0.1164610                                       
 INPUT CARD>  3      1.7070000              0.3901780                                       
 INPUT CARD>  4      0.5314000              0.6371020                                       
 INPUT CARD>P   1                                                                           
 INPUT CARD>  1      0.1654000              1.0000000                                       
 INPUT CARD>                                                                                
 INPUT CARD>N     7.0    0.0      0.0     0.9                                               
 INPUT CARD>S   7                                                                           
 INPUT CARD>  1   5909.0000000              0.0011900                                       
 INPUT CARD>  2    887.5000000              0.0090990                                       
 INPUT CARD>  3    204.7000000              0.0441450                                       
 INPUT CARD>  4     59.8400000              0.1504640                                       
 INPUT CARD>  5     20.0000000              0.3567410                                       
 INPUT CARD>  6      7.1930000              0.4465330                                       
 INPUT CARD>  7      2.6860000              0.1456030                                       
 INPUT CARD>S   2                                                                           
 INPUT CARD>  1      7.1930000             -0.1604050                                       
 INPUT CARD>  2      0.7000000              1.0582150                                       
 INPUT CARD>S   1                                                                           
 INPUT CARD>  1      0.2133000              1.0000000                                       
 INPUT CARD>P   4                                                                           
 INPUT CARD>  1     26.7900000              0.0182540                                       
 INPUT CARD>  2      5.9560000              0.1164610                                       
 INPUT CARD>  3      1.7070000              0.3901780                                       
 INPUT CARD>  4      0.5314000              0.6371020                                       
 INPUT CARD>P   1                                                                           
  300000000 WORDS OF MEMORY AVAILABLE


     RUN TITLE
     ---------
 N2...HF...Double-zeta basis                                                     

 THE POINT GROUP OF THE MOLECULE IS CNV     
 THE ORDER OF THE PRINCIPAL AXIS IS     2

 ATOM      ATOMIC                      COORDINATES (BOHR)
           CHARGE         X                   Y                   Z
 N           7.0     0.0000000000        0.0000000000        0.0000000000
 N           7.0     0.0000000000        0.0000000000        1.7007533889

          INTERNUCLEAR DISTANCES (ANGS.)
          ------------------------------

                1 N          2 N     

   1 N       0.0000000    0.9000000 *
   2 N       0.9000000 *  0.0000000  

  * ... LESS THAN  3.000


     ATOMIC BASIS SET
     ----------------
 THE CONTRACTED PRIMITIVE FUNCTIONS HAVE BEEN UNNORMALIZED
 THE CONTRACTED BASIS FUNCTIONS ARE NOW NORMALIZED TO UNITY

  SHELL TYPE  PRIMITIVE        EXPONENT          CONTRACTION COEFFICIENT(S)

 N         

      1   S       1          5909.0000000    0.001189999548
      1   S       2           887.5000000    0.009098996542
      1   S       3           204.7000000    0.044144983225
      1   S       4            59.8400000    0.150463942825
      1   S       5            20.0000000    0.356740864442
      1   S       6             7.1930000    0.446532830321
      1   S       7             2.6860000    0.145602944672

      2   S       8             7.1930000   -0.160405033446
      2   S       9             0.7000000    1.058215220651

      3   S      10             0.2133000    1.000000000000

      4   P      11            26.7900000    0.018253998243
      4   P      12             5.9560000    0.116460988791
      4   P      13             1.7070000    0.390177962446
      4   P      14             0.5314000    0.637101938680

      5   P      15             0.1654000    1.000000000000

 N         

      6   S      16          5909.0000000    0.001189999548
      6   S      17           887.5000000    0.009098996542
      6   S      18           204.7000000    0.044144983225
      6   S      19            59.8400000    0.150463942825
      6   S      20            20.0000000    0.356740864442
      6   S      21             7.1930000    0.446532830321
      6   S      22             2.6860000    0.145602944672

      7   S      23             7.1930000   -0.160405033446
      7   S      24             0.7000000    1.058215220651

      8   S      25             0.2133000    1.000000000000

      9   P      26            26.7900000    0.018253998243
      9   P      27             5.9560000    0.116460988791
      9   P      28             1.7070000    0.390177962446
      9   P      29             0.5314000    0.637101938680

     10   P      30             0.1654000    1.000000000000

 TOTAL NUMBER OF BASIS SET SHELLS             =   10
 NUMBER OF CARTESIAN GAUSSIAN BASIS FUNCTIONS =   18
 NUMBER OF ELECTRONS                          =   14
 CHARGE OF MOLECULE                           =    0
 SPIN MULTIPLICITY                            =    1
 NUMBER OF OCCUPIED ORBITALS (ALPHA)          =    7
 NUMBER OF OCCUPIED ORBITALS (BETA )          =    7
 TOTAL NUMBER OF ATOMS                        =    2
 THE NUCLEAR REPULSION ENERGY IS       28.8107613475

 THIS MOLECULE IS RECOGNIZED AS BEING LINEAR,
 ORBITAL LZ DEGENERACY TOLERANCE ETOLLZ= 1.00E-06

     $CONTRL OPTIONS
     ---------------
 SCFTYP=RHF          RUNTYP=ENERGY       EXETYP=RUN     
 MPLEVL=       0     CITYP =ALDET        CCTYP =NONE         VBTYP =NONE    
 DFTTYP=NONE         TDDFT =NONE    
 MULT  =       1     ICHARG=       0     NZVAR =       0     COORD =UNIQUE  
 PP    =NONE         RELWFN=NONE         LOCAL =NONE         NUMGRD=       F
 ISPHER=      -1     NOSYM =       0     MAXIT =      30     UNITS =ANGS    
 PLTORB=       F     MOLPLT=       F     AIMPAC=       F     FRIEND=        
 NPRINT=       7     IREST =       0     GEOM  =INPUT   
 NORMF =       0     NORMP =       0     ITOL  =      20     ICUT  =       9
 INTTYP=BEST         GRDTYP=BEST         QMTTOL= 1.0E-06

     $SYSTEM OPTIONS
     ---------------
  REPLICATED MEMORY=   300000000 WORDS (ON EVERY NODE).
 DISTRIBUTED MEMDDI=           0 MILLION WORDS IN AGGREGATE,
 MEMDDI DISTRIBUTED OVER  12 PROCESSORS IS           0 WORDS/PROCESSOR.
 TOTAL MEMORY REQUESTED ON EACH PROCESSOR=   300000000 WORDS.
 TIMLIM=      525600.00 MINUTES, OR     365.0 DAYS.
 PARALL= T  BALTYP=  DLB     KDIAG=    0  COREFL= F
 MXSEQ2=     300 MXSEQ3=     150  mem10=         0

          ----------------
          PROPERTIES INPUT
          ----------------

     MOMENTS            FIELD           POTENTIAL          DENSITY
 IEMOM =       1   IEFLD =       0   IEPOT =       0   IEDEN =       0
 WHERE =COMASS     WHERE =NUCLEI     WHERE =NUCLEI     WHERE =NUCLEI  
 OUTPUT=BOTH       OUTPUT=BOTH       OUTPUT=BOTH       OUTPUT=BOTH    
 IEMINT=       0   IEFINT=       0                     IEDINT=       0
                                                       MORB  =       0
          EXTRAPOLATION IN EFFECT
          SOSCF IN EFFECT
 ORBITAL PRINTING OPTION: NPREO=     1    18     2     1

     -------------------------------
     INTEGRAL TRANSFORMATION OPTIONS
     -------------------------------
     NWORD  =            0
     CUTOFF = 1.0E-09     MPTRAN =       0
     DIRTRF =       F     AOINTS =DUP     

          ----------------------
          INTEGRAL INPUT OPTIONS
          ----------------------
 NOPK  =       1 NORDER=       0 SCHWRZ=       F

     ------------------------------------------
     THE POINT GROUP IS CNV, NAXIS= 2, ORDER= 4
     ------------------------------------------

     DIMENSIONS OF THE SYMMETRY SUBSPACES ARE
 A1  =   10     A2  =    0     B1  =    4     B2  =    4

 ..... DONE SETTING UP THE RUN .....
 CPU     0: STEP CPU TIME=     0.02 TOTAL CPU TIME=        0.0 (    0.0 MIN)
 TOTAL WALL CLOCK TIME=        0.0 SECONDS, CPU UTILIZATION IS 100.00%

          ********************
          1 ELECTRON INTEGRALS
          ********************
 ...... END OF ONE-ELECTRON INTEGRALS ......
 CPU     0: STEP CPU TIME=     0.00 TOTAL CPU TIME=        0.0 (    0.0 MIN)
 TOTAL WALL CLOCK TIME=        0.1 SECONDS, CPU UTILIZATION IS  40.00%

          -------------
          GUESS OPTIONS
          -------------
          GUESS =HUCKEL            NORB  =       0          NORDER=       0
          MIX   =       F          PRTMO =       F          PUNMO =       F
          TOLZ  = 1.0E-08          TOLE  = 1.0E-05
          SYMDEN=       F          PURIFY=       F

 INITIAL GUESS ORBITALS GENERATED BY HUCKEL   ROUTINE.
 HUCKEL GUESS REQUIRES      4352 WORDS.

 SYMMETRIES FOR INITIAL GUESS ORBITALS FOLLOW.   BOTH SET(S).
     7 ORBITALS ARE OCCUPIED (    2 CORE ORBITALS).
     3=A1       4=B2       5=B1       6=A1       7=A1       8=B1       9=B2  
    10=A1      11=A1      12=A1      13=A1      14=A1      15=B1      16=B1  
    17=B2  
 ...... END OF INITIAL ORBITAL SELECTION ......
 CPU     0: STEP CPU TIME=     0.00 TOTAL CPU TIME=        0.0 (    0.0 MIN)
 TOTAL WALL CLOCK TIME=        0.1 SECONDS, CPU UTILIZATION IS  33.33%

                    ----------------------
                    AO INTEGRAL TECHNOLOGY
                    ----------------------
     S,P,L SHELL ROTATED AXIS INTEGRALS, REPROGRAMMED BY
        KAZUYA ISHIMURA (IMS) AND JOSE SIERRA (SYNSTAR).
     S,P,D,L SHELL ROTATED AXIS INTEGRALS PROGRAMMED BY
        KAZUYA ISHIMURA (INSTITUTE FOR MOLECULAR SCIENCE).
     S,P,D,F,G SHELL TO TOTAL QUARTET ANGULAR MOMENTUM SUM 5,
        ERIC PROGRAM BY GRAHAM FLETCHER (ELORET AND NASA ADVANCED
        SUPERCOMPUTING DIVISION, AMES RESEARCH CENTER).
     S,P,D,F,G,L SHELL GENERAL RYS QUADRATURE PROGRAMMED BY
        MICHEL DUPUIS (PACIFIC NORTHWEST NATIONAL LABORATORY).

          --------------------
          2 ELECTRON INTEGRALS
          --------------------

 THE -PK- OPTION IS OFF, THE INTEGRALS ARE NOT IN SUPERMATRIX FORM.
 STORING   15000 INTEGRALS/RECORD ON DISK, USING 12 BYTES/INTEGRAL.
 TWO ELECTRON INTEGRAL EVALUATION REQUIRES   89411 WORDS OF MEMORY.
 II,JST,KST,LST =  1  1  1  1 NREC =         1 INTLOC =    1
 II,JST,KST,LST =  2  1  1  1 NREC =         1 INTLOC =    2
 II,JST,KST,LST =  3  1  1  1 NREC =         1 INTLOC =    2
 II,JST,KST,LST =  4  1  1  1 NREC =         1 INTLOC =    2
 II,JST,KST,LST =  5  1  1  1 NREC =         1 INTLOC =    2
 II,JST,KST,LST =  6  1  1  1 NREC =         1 INTLOC =   89
 II,JST,KST,LST =  7  1  1  1 NREC =         1 INTLOC =   89
 II,JST,KST,LST =  8  1  1  1 NREC =         1 INTLOC =  154
 II,JST,KST,LST =  9  1  1  1 NREC =         1 INTLOC =  154
 II,JST,KST,LST = 10  1  1  1 NREC =         1 INTLOC =  154
 TOTAL NUMBER OF NONZERO TWO-ELECTRON INTEGRALS =                4350
         12 INTEGRAL RECORDS WERE STORED ON DISK FILE  8.
  ...... END OF TWO-ELECTRON INTEGRALS .....
 CPU     0: STEP CPU TIME=     0.02 TOTAL CPU TIME=        0.0 (    0.0 MIN)
 TOTAL WALL CLOCK TIME=        0.1 SECONDS, CPU UTILIZATION IS  50.00%

          --------------------------
                 RHF SCF CALCULATION
          --------------------------

     NUCLEAR ENERGY =        28.8107613475
     MAXIT =   30     NPUNCH=    2
     EXTRAP=T  DAMP=F  SHIFT=F  RSTRCT=F  DIIS=F  DEM=F  SOSCF=T
     DENSITY MATRIX CONV=  1.00E-06
     SOSCF WILL OPTIMIZE      77 ORBITAL ROTATIONS, SOGTOL=   0.250
     MEMORY REQUIRED FOR RHF ITERS=     32828 WORDS.

 ITER EX DEM     TOTAL ENERGY        E CHANGE  DENSITY CHANGE     ORB. GRAD
   1  0  0     -108.3704151621  -108.3704151621   0.259998668   0.000000000
          ---------------START SECOND ORDER SCF---------------
   2  1  0     -108.6638579673    -0.2934428052   0.104771587   0.050865400
   3  2  0     -108.6727434202    -0.0088854529   0.015504184   0.008949425
   4  3  0     -108.6731438893    -0.0004004692   0.000953620   0.001022125
   5  4  0     -108.6731459777    -0.0000020883   0.000597759   0.000182727
   6  5  0     -108.6731461131    -0.0000001354   0.000089617   0.000017928
   7  6  0     -108.6731461153    -0.0000000022   0.000020789   0.000007037
   8  7  0     -108.6731461154    -0.0000000001   0.000000539   0.000000227
   9  8  0     -108.6731461154    -0.0000000000   0.000000132   0.000000054

          -----------------
          DENSITY CONVERGED
          -----------------
     TIME TO FORM FOCK OPERATORS=       0.0 SECONDS (       0.0 SEC/ITER)
     TIME TO SOLVE SCF EQUATIONS=       0.0 SECONDS (       0.0 SEC/ITER)

 FINAL RHF ENERGY IS     -108.6731461154 AFTER   9 ITERATIONS

 LZ VALUE ANALYSIS FOR THE MOS
 ----------------------------------------
 MO     1 (    1) HAS LZ(WEIGHT)= 0.00(100.0%) 
 MO     2 (    2) HAS LZ(WEIGHT)= 0.00(100.0%) 
 MO     3 (    3) HAS LZ(WEIGHT)= 0.00(100.0%) 
 MO     4 (    4) HAS LZ(WEIGHT)=-1.00( 50.0%)  1.00( 50.0%) 
 MO     5 (    4) HAS LZ(WEIGHT)=-1.00( 50.0%)  1.00( 50.0%) 
 MO     6 (    5) HAS LZ(WEIGHT)= 0.00(100.0%) 
 MO     7 (    6) HAS LZ(WEIGHT)= 0.00(100.0%) 
 MO     8 (    7) HAS LZ(WEIGHT)=-1.00( 50.0%)  1.00( 50.0%) 
 MO     9 (    7) HAS LZ(WEIGHT)=-1.00( 50.0%)  1.00( 50.0%) 
 MO    10 (    8) HAS LZ(WEIGHT)= 0.00(100.0%) 
 MO    11 (    9) HAS LZ(WEIGHT)=-1.00( 50.0%)  1.00( 50.0%) 
 MO    12 (    9) HAS LZ(WEIGHT)=-1.00( 50.0%)  1.00( 50.0%) 
 MO    13 (   10) HAS LZ(WEIGHT)= 0.00(100.0%) 
 MO    14 (   11) HAS LZ(WEIGHT)=-1.00( 50.0%)  1.00( 50.0%) 
 MO    15 (   11) HAS LZ(WEIGHT)=-1.00( 50.0%)  1.00( 50.0%) 
 MO    16 (   12) HAS LZ(WEIGHT)= 0.00(100.0%) 
 MO    17 (   13) HAS LZ(WEIGHT)= 0.00(100.0%) 
 MO    18 (   14) HAS LZ(WEIGHT)= 0.00(100.0%) 

          ------------
          EIGENVECTORS
          ------------

                      1          2          3          4          5
                  -15.6917   -15.6773    -1.6725    -0.7330    -0.7330
                     A1         A1         A1         B2         B1  
    1  N  1  S    0.705525   0.707134  -0.194839   0.000000   0.000000
    2  N  1  S    0.002536   0.002308   0.363376   0.000000   0.000000
    3  N  1  S    0.000635   0.005777   0.129301   0.000000   0.000000
    4  N  1  X    0.000000   0.000000   0.000000   0.000000   0.535966
    5  N  1  Y    0.000000   0.000000   0.000000   0.535966   0.000000
    6  N  1  Z    0.003608   0.003645   0.299524   0.000000   0.000000
    7  N  1  X    0.000000   0.000000   0.000000   0.000000   0.107234
    8  N  1  Y    0.000000   0.000000   0.000000   0.107234   0.000000
    9  N  1  Z   -0.002018   0.001084  -0.057694   0.000000   0.000000
   10  N  2  S    0.705525  -0.707134  -0.194839   0.000000   0.000000
   11  N  2  S    0.002536  -0.002308   0.363376   0.000000   0.000000
   12  N  2  S    0.000635  -0.005777   0.129301   0.000000   0.000000
   13  N  2  X    0.000000   0.000000   0.000000   0.000000   0.535966
   14  N  2  Y    0.000000   0.000000   0.000000   0.535966   0.000000
   15  N  2  Z   -0.003608   0.003645  -0.299524   0.000000   0.000000
   16  N  2  X    0.000000   0.000000   0.000000   0.000000   0.107234
   17  N  2  Y    0.000000   0.000000   0.000000   0.107234   0.000000
   18  N  2  Z    0.002018   0.001084   0.057694   0.000000   0.000000

                      6          7          8          9         10
                   -0.7036    -0.6363     0.2535     0.2535     0.4255
                     A1         A1         B2         B1         A1  
    1  N  1  S    0.148522   0.049939   0.000000   0.000000   0.085872
    2  N  1  S   -0.338032  -0.097857   0.000000   0.000000  -0.019396
    3  N  1  S   -0.454591  -0.347021   0.000000   0.000000  -4.086079
    4  N  1  X    0.000000   0.000000   0.000000   0.459202   0.000000
    5  N  1  Y    0.000000   0.000000   0.459202   0.000000   0.000000
    6  N  1  Z    0.268706   0.520324   0.000000   0.000000   0.079715
    7  N  1  X    0.000000   0.000000   0.000000   0.982268   0.000000
    8  N  1  Y    0.000000   0.000000   0.982268   0.000000   0.000000
    9  N  1  Z    0.069211   0.063435   0.000000   0.000000  -2.033752
   10  N  2  S   -0.148522   0.049939   0.000000   0.000000  -0.085872
   11  N  2  S    0.338032  -0.097857   0.000000   0.000000   0.019396
   12  N  2  S    0.454591  -0.347021   0.000000   0.000000   4.086079
   13  N  2  X    0.000000   0.000000   0.000000  -0.459202   0.000000
   14  N  2  Y    0.000000   0.000000  -0.459202   0.000000   0.000000
   15  N  2  Z    0.268706  -0.520324   0.000000   0.000000   0.079715
   16  N  2  X    0.000000   0.000000   0.000000  -0.982268   0.000000
   17  N  2  Y    0.000000   0.000000  -0.982268   0.000000   0.000000
   18  N  2  Z    0.069211  -0.063435   0.000000   0.000000  -2.033752

                     11         12         13         14         15
                    0.5474     0.5474     0.5502     0.8553     0.8553
                     B2         B1         A1         B2         B1  
    1  N  1  S    0.000000   0.000000  -0.006646   0.000000   0.000000
    2  N  1  S    0.000000   0.000000  -0.159167   0.000000   0.000000
    3  N  1  S    0.000000   0.000000  -0.220020   0.000000   0.000000
    4  N  1  X    0.000000  -0.535091   0.000000   0.000000  -0.829090
    5  N  1  Y   -0.535091   0.000000   0.000000  -0.829090   0.000000
    6  N  1  Z    0.000000   0.000000  -0.316151   0.000000   0.000000
    7  N  1  X    0.000000   0.640342   0.000000   0.000000   1.390555
    8  N  1  Y    0.640342   0.000000   0.000000   1.390555   0.000000
    9  N  1  Z    0.000000   0.000000   1.289986   0.000000   0.000000
   10  N  2  S    0.000000   0.000000  -0.006646   0.000000   0.000000
   11  N  2  S    0.000000   0.000000  -0.159167   0.000000   0.000000
   12  N  2  S    0.000000   0.000000  -0.220020   0.000000   0.000000
   13  N  2  X    0.000000  -0.535091   0.000000   0.000000   0.829090
   14  N  2  Y   -0.535091   0.000000   0.000000   0.829090   0.000000
   15  N  2  Z    0.000000   0.000000   0.316151   0.000000   0.000000
   16  N  2  X    0.000000   0.640342   0.000000   0.000000  -1.390555
   17  N  2  Y    0.640342   0.000000   0.000000  -1.390555   0.000000
   18  N  2  Z    0.000000   0.000000  -1.289986   0.000000   0.000000

                     16         17         18
                    0.9386     1.5988     2.0783
                     A1         A1         A1  
    1  N  1  S   -0.071490  -0.000332  -0.073613
    2  N  1  S    1.107325   0.855267   1.643087
    3  N  1  S   -0.933319  -6.425209  -2.986493
    4  N  1  X    0.000000   0.000000   0.000000
    5  N  1  Y    0.000000   0.000000   0.000000
    6  N  1  Z   -0.307931  -0.927415   1.022978
    7  N  1  X    0.000000   0.000000   0.000000
    8  N  1  Y    0.000000   0.000000   0.000000
    9  N  1  Z    0.072900  -1.804276  -1.046666
   10  N  2  S   -0.071490   0.000332   0.073613
   11  N  2  S    1.107325  -0.855267  -1.643087
   12  N  2  S   -0.933319   6.425209   2.986493
   13  N  2  X    0.000000   0.000000   0.000000
   14  N  2  Y    0.000000   0.000000   0.000000
   15  N  2  Z    0.307931  -0.927415   1.022978
   16  N  2  X    0.000000   0.000000   0.000000
   17  N  2  Y    0.000000   0.000000   0.000000
   18  N  2  Z   -0.072900  -1.804276  -1.046666
 ...... END OF RHF CALCULATION ......
 CPU     0: STEP CPU TIME=     0.01 TOTAL CPU TIME=        0.0 (    0.0 MIN)
 TOTAL WALL CLOCK TIME=        0.1 SECONDS, CPU UTILIZATION IS  55.56%

     ----------------------------------------------------------------
     PROPERTY VALUES FOR THE RHF   SELF-CONSISTENT FIELD WAVEFUNCTION
     ----------------------------------------------------------------

          -----------------
          ENERGY COMPONENTS
          -----------------

         WAVEFUNCTION NORMALIZATION =       1.0000000000

                ONE ELECTRON ENERGY =    -203.2735284320
                TWO ELECTRON ENERGY =      65.7896209691
           NUCLEAR REPULSION ENERGY =      28.8107613475
                                      ------------------
                       TOTAL ENERGY =    -108.6731461154

 ELECTRON-ELECTRON POTENTIAL ENERGY =      65.7896209691
  NUCLEUS-ELECTRON POTENTIAL ENERGY =    -313.7978389868
   NUCLEUS-NUCLEUS POTENTIAL ENERGY =      28.8107613475
                                      ------------------
             TOTAL POTENTIAL ENERGY =    -219.1974566703
               TOTAL KINETIC ENERGY =     110.5243105549
                 VIRIAL RATIO (V/T) =       1.9832510655

  ...... PI ENERGY ANALYSIS ......

 ENERGY ANALYSIS:
            FOCK ENERGY=    -71.6942864749
          BARE H ENERGY=   -203.2735284320
     ELECTRONIC ENERGY =   -137.4839074534
         KINETIC ENERGY=    110.5243105549
          N-N REPULSION=     28.8107613475
           TOTAL ENERGY=   -108.6731461059
        SIGMA PART(1+2)=   -118.4506783004
               (K,V1,2)=    103.2683576344   -271.4072279783     49.6881920435
           PI PART(1+2)=    -19.0332291530
               (K,V1,2)=      7.2559529205    -42.3906110085     16.1014289350
  SIGMA SKELETON, ERROR=    -89.6399169529     -0.0000000000
             MIXED PART= 0.00000E+00 0.00000E+00 0.00000E+00 0.00000E+00
 ...... END OF PI ENERGY ANALYSIS ......

          ---------------------------------------
          MULLIKEN AND LOWDIN POPULATION ANALYSES
          ---------------------------------------

               ----- POPULATIONS IN EACH AO -----
                             MULLIKEN      LOWDIN
              1  N  1  S      1.99979     1.99703
              2  N  1  S      0.90538     0.78461
              3  N  1  S      0.84140     0.68257
              4  N  1  X      0.85676     0.77031
              5  N  1  Y      0.85676     0.77031
              6  N  1  Z      1.19579     1.18686
              7  N  1  X      0.14324     0.22969
              8  N  1  Y      0.14324     0.22969
              9  N  1  Z      0.05765     0.34893
             10  N  2  S      1.99979     1.99703
             11  N  2  S      0.90538     0.78461
             12  N  2  S      0.84140     0.68257
             13  N  2  X      0.85676     0.77031
             14  N  2  Y      0.85676     0.77031
             15  N  2  Z      1.19579     1.18686
             16  N  2  X      0.14324     0.22969
             17  N  2  Y      0.14324     0.22969
             18  N  2  Z      0.05765     0.34893

          ----- MULLIKEN ATOMIC OVERLAP POPULATIONS -----
          (OFF-DIAGONAL ELEMENTS NEED TO BE MULTIPLIED BY 2)

             1           2

    1    6.2584412
    2    0.7415588   6.2584412

          TOTAL MULLIKEN AND LOWDIN ATOMIC POPULATIONS
       ATOM         MULL.POP.    CHARGE          LOW.POP.     CHARGE
    1 N             7.000000    0.000000         7.000000   -0.000000
    2 N             7.000000    0.000000         7.000000    0.000000

          ---------------------
          ELECTROSTATIC MOMENTS
          ---------------------

 POINT   1           X           Y           Z (BOHR)    CHARGE
                 0.000000    0.000000    0.850377        0.00 (A.U.)
         DX          DY          DZ         /D/  (DEBYE)
     0.000000    0.000000    0.000000    0.000000
 ...... END OF PROPERTY EVALUATION ......
 CPU     0: STEP CPU TIME=     0.00 TOTAL CPU TIME=        0.0 (    0.0 MIN)
 TOTAL WALL CLOCK TIME=        0.1 SECONDS, CPU UTILIZATION IS  38.46%

 DETERMINANT CI OPTIONS   NRNFG   NPFLG
 INTEGRAL TRANSFORMATION    1       0
 DIAGONALIZE HAMILTONIAN    1       0
 FORM 1E- DENSITY MATRIX    1       0
 FORM 2E- DENSITY MATRIX    0       0

     --------------------------------------------------
          AMES LABORATORY DETERMINANTAL FULL CI
     PROGRAM WRITTEN BY JOE IVANIC AND KLAUS RUEDENBERG
     --------------------------------------------------

 THE POINT GROUP                  =   C2V     
 THE STATE SYMMETRY               =   A1      
 NUMBER OF CORE ORBITALS          =    2
 NUMBER OF ACTIVE ORBITALS        =   16
 NUMBER OF ALPHA ELECTRONS        =    7 (   5 ACTIVE)
 NUMBER OF BETA ELECTRONS         =    7 (   5 ACTIVE)
 NUMBER OF OCCUPIED ORBITALS      =   18
 NUMBER OF CI STATES REQUESTED    =    1
 NUMBER OF CI STARTING VECTORS    =    6
 MAX. NO. OF CI EXPANSION VECTORS =   12
 SIZE OF INITIAL CI GUESS MATRIX  =  300
 MAX. NO. OF CI ITERS/STATE       =  100
 CI DIAGONALIZATION CRITERION     = 1.00E-06
 CI PROPERTIES WILL BE FOUND FOR ROOT NUMBER   1
 1E- DENSITY MATRIX OPTIONS ARE 1

 CORRELATION ENERGY ANALYSIS      =    F

 SYMMETRIES FOR THE   2 CORE,  16 ACTIVE ARE

     CORE= A1    A1  

   ACTIVE= A1    B2    B1    A1    A1    B2    B1    A1    B2    B1  
           A1    B2    B1    A1    A1    A1  

     --------------------------------------------
     PARTIAL TWO ELECTRON INTEGRAL TRANSFORMATION
     --------------------------------------------

 NUMBER OF CORE MOLECULAR ORBITALS     =    2
 NUMBER OF OCCUPIED MOLECULAR ORBITALS =   18
 TOTAL NUMBER OF MOLECULAR ORBITALS    =   18
 TOTAL NUMBER OF ATOMIC ORBITALS       =   18
 THRESHOLD FOR KEEPING TRANSFORMED 2E- INTEGRALS = 1.000E-09

 -------------------------------     ------------------------------
 DISTRIBUTED DATA TRANSFORMATION     PROGRAM WRITTEN BY G. FLETCHER
 -------------------------------     ------------------------------

 THE DISTRIBUTED MEMORY REQUIRED FOR THIS STEP IS MEMDDI=         1 MWORDS
 CREATING DISTRIBUTED STORAGE FOR [OCC OCC|OCC OCC] INTEGRALS
 DDI: Creating Array [0] - 171 x 171 = 29241 words.
 CREATING WORKSPACE OF SIZE VVOO
 DDI: Creating Array [1] - 171 x 171 = 29241 words.
 FOR   12 PROCESSORS, THE REPLICATED MEMORY NEEDED IS       58507 WORDS.

      DIRECT 4-INDEX TRANSFORMATION 
      SCHWARZ INEQUALITY TEST SKIPPED          0 INTEGRAL BLOCKS
 ----- FROZEN CORE ENERGY =      -103.5767259412
 ... END OF INTEGRAL TRANSFORMATION ...
 CPU     0: STEP CPU TIME=     0.01 TOTAL CPU TIME=        0.1 (    0.0 MIN)
 TOTAL WALL CLOCK TIME=        0.2 SECONDS, CPU UTILIZATION IS  33.33%

     --------------------------------------------------
          AMES LABORATORY DETERMINANTAL FULL CI
     PROGRAM WRITTEN BY JOE IVANIC AND KLAUS RUEDENBERG
     --------------------------------------------------

 THE NUMBER OF DETERMINANTS HAVING SPACE SYMMETRY A1 
 IN POINT GROUP C2V  WITH SZ=  0.0 IS        4777056
 THE DETERMINANT FULL CI REQUIRES       119865995 WORDS
 INITIAL CI VECTOR GUESS TIME  :          1.8
 INITIAL FULL CI ITERATION TIME:          5.7

 ITERATION      ENERGY           GRADIENT
     0     -108.7588065613     0.57380823
     1     -108.8443903339     0.17057428
     2     -108.8494265745     0.05417955
     3     -108.8500229761     0.01877299
     4     -108.8500956003     0.00686254
     5     -108.8501049453     0.00258609
     6     -108.8501062038     0.00092534
     7     -108.8501063330     0.00034937
     8     -108.8501063618     0.00014711
     9     -108.8501063656     0.00005153
    10     -108.8501063660     0.00001698
    11     -108.8501063661     0.00000756
    12     -108.8501063661     0.00000238
    13     -108.8501063661     0.00000085

 CONVERGED STATE    1 ENERGY=     -108.8501063661 IN   13 ITERS

 ALL STATES CONVERGED.

 CI EIGENVECTORS WILL BE LABELED IN GROUP=C2V     
 PRINTING CI COEFFICIENTS LARGER THAN  0.050000

 STATE   1  ENERGY=      -108.8501063661  S=  0.00  SZ=  0.00  SPACE SYM=A1  

      ALPHA       |      BETA        | COEFFICIENT
------------------|------------------|------------
 1111100000000000 | 1111100000000000 |   0.9658269
 1101101000000000 | 1101101000000000 |  -0.0641870
 1011110000000000 | 1011110000000000 |  -0.0641870
 ..... DONE WITH DETERMINANT CI COMPUTATION .....
 CPU     0: STEP CPU TIME=    44.64 TOTAL CPU TIME=       44.7 (    0.7 MIN)
 TOTAL WALL CLOCK TIME=       57.9 SECONDS, CPU UTILIZATION IS  77.24%

     ---------------------------
     ONE PARTICLE DENSITY MATRIX
     ---------------------------

 DENSITY MATRIX WILL BE SAVED FOR   1-TH STATE WITH S= 0.00

 CI EIGENSTATE   1 TOTAL ENERGY =     -108.8501063661

          NATURAL ORBITALS IN ATOMIC ORBITAL BASIS
          ----------------------------------------

                      1          2          3          4          5
                    2.0000     2.0000     1.9915     1.9826     1.9746
                     A1         A1         A1         A1         A1  
    1  N  1  S    0.705525   0.707134  -0.195851   0.044650  -0.147929
    2  N  1  S    0.002536   0.002308   0.363591  -0.080764   0.342483
    3  N  1  S    0.000635   0.005777   0.139091  -0.352653   0.412814
    4  N  1  X    0.000000   0.000000   0.000000   0.000000   0.000000
    5  N  1  Y    0.000000   0.000000   0.000000   0.000000   0.000000
    6  N  1  Z    0.003608   0.003645   0.287451   0.523175  -0.262852
    7  N  1  X    0.000000   0.000000   0.000000   0.000000   0.000000
    8  N  1  Y    0.000000   0.000000   0.000000   0.000000   0.000000
    9  N  1  Z   -0.002018   0.001084  -0.058800   0.069032  -0.090453
   10  N  2  S    0.705525  -0.707134  -0.195851   0.044650   0.147929
   11  N  2  S    0.002536  -0.002308   0.363591  -0.080764  -0.342483
   12  N  2  S    0.000635  -0.005777   0.139091  -0.352653  -0.412814
   13  N  2  X    0.000000   0.000000   0.000000   0.000000   0.000000
   14  N  2  Y    0.000000   0.000000   0.000000   0.000000   0.000000
   15  N  2  Z   -0.003608   0.003645  -0.287451  -0.523175  -0.262852
   16  N  2  X    0.000000   0.000000   0.000000   0.000000   0.000000
   17  N  2  Y    0.000000   0.000000   0.000000   0.000000   0.000000
   18  N  2  Z    0.002018   0.001084   0.058800  -0.069032  -0.090453

                      6          7          8          9         10
                    1.9567     1.9567     0.0450     0.0450     0.0125
                     B2         B1         B1         B2         A1  
    1  N  1  S    0.000000   0.000000   0.000000   0.000000  -0.071060
    2  N  1  S    0.000000   0.000000   0.000000   0.000000   1.014478
    3  N  1  S    0.000000   0.000000   0.000000   0.000000  -0.953474
    4  N  1  X    0.000000   0.540620   0.839672   0.000000   0.000000
    5  N  1  Y    0.540620   0.000000   0.000000   0.839672   0.000000
    6  N  1  Z    0.000000   0.000000   0.000000   0.000000  -0.391068
    7  N  1  X    0.000000   0.101635   0.054917   0.000000   0.000000
    8  N  1  Y    0.101635   0.000000   0.000000   0.054917   0.000000
    9  N  1  Z    0.000000   0.000000   0.000000   0.000000   0.444364
   10  N  2  S    0.000000   0.000000   0.000000   0.000000  -0.071060
   11  N  2  S    0.000000   0.000000   0.000000   0.000000   1.014478
   12  N  2  S    0.000000   0.000000   0.000000   0.000000  -0.953474
   13  N  2  X    0.000000   0.540620  -0.839672   0.000000   0.000000
   14  N  2  Y    0.540620   0.000000   0.000000  -0.839672   0.000000
   15  N  2  Z    0.000000   0.000000   0.000000   0.000000   0.391068
   16  N  2  X    0.000000   0.101635  -0.054917   0.000000   0.000000
   17  N  2  Y    0.101635   0.000000   0.000000  -0.054917   0.000000
   18  N  2  Z    0.000000   0.000000   0.000000   0.000000  -0.444364

                     11         12         13         14         15
                    0.0112     0.0090     0.0051     0.0051     0.0028
                     A1         A1         B2         B1         A1  
    1  N  1  S   -0.005431   0.111279   0.000000   0.000000  -0.014513
    2  N  1  S   -0.152123  -1.369885   0.000000   0.000000   0.474590
    3  N  1  S   -1.414903   0.420549   0.000000   0.000000  -0.061737
    4  N  1  X    0.000000   0.000000   0.000000  -0.530388   0.000000
    5  N  1  Y    0.000000   0.000000  -0.530388   0.000000   0.000000
    6  N  1  Z   -1.222906  -0.633911   0.000000   0.000000   0.214359
    7  N  1  X    0.000000   0.000000   0.000000   0.641255   0.000000
    8  N  1  Y    0.000000   0.000000   0.641255   0.000000   0.000000
    9  N  1  Z    0.113123  -0.279845   0.000000   0.000000  -1.212867
   10  N  2  S    0.005431  -0.111279   0.000000   0.000000  -0.014513
   11  N  2  S    0.152123   1.369885   0.000000   0.000000   0.474590
   12  N  2  S    1.414903  -0.420549   0.000000   0.000000  -0.061737
   13  N  2  X    0.000000   0.000000   0.000000  -0.530388   0.000000
   14  N  2  Y    0.000000   0.000000  -0.530388   0.000000   0.000000
   15  N  2  Z   -1.222906  -0.633911   0.000000   0.000000  -0.214359
   16  N  2  X    0.000000   0.000000   0.000000   0.641255   0.000000
   17  N  2  Y    0.000000   0.000000   0.641255   0.000000   0.000000
   18  N  2  Z    0.113123  -0.279845   0.000000   0.000000   1.212867

                     16         17         18
                    0.0009     0.0009     0.0003
                     B2         B1         A1  
    1  N  1  S    0.000000   0.000000   0.023590
    2  N  1  S    0.000000   0.000000   1.236461
    3  N  1  S    0.000000   0.000000  -8.047106
    4  N  1  X    0.000000  -0.439552   0.000000
    5  N  1  Y   -0.439552   0.000000   0.000000
    6  N  1  Z    0.000000   0.000000  -0.136776
    7  N  1  X    0.000000   1.701611   0.000000
    8  N  1  Y    1.701611   0.000000   0.000000
    9  N  1  Z    0.000000   0.000000  -2.896993
   10  N  2  S    0.000000   0.000000  -0.023590
   11  N  2  S    0.000000   0.000000  -1.236461
   12  N  2  S    0.000000   0.000000   8.047106
   13  N  2  X    0.000000   0.439552   0.000000
   14  N  2  Y    0.439552   0.000000   0.000000
   15  N  2  Z    0.000000   0.000000  -0.136776
   16  N  2  X    0.000000  -1.701611   0.000000
   17  N  2  Y   -1.701611   0.000000   0.000000
   18  N  2  Z    0.000000   0.000000  -2.896993
 ..... DONE WITH ONE PARTICLE DENSITY MATRIX .....
 CPU     0: STEP CPU TIME=     0.98 TOTAL CPU TIME=       45.7 (    0.8 MIN)
 TOTAL WALL CLOCK TIME=       59.3 SECONDS, CPU UTILIZATION IS  77.05%

     --------------------------------------------------------
     ALDET CI PROPERTIES...FOR THE WAVEFUNCTION OF STATE    1
               USING THE EXPECTATION VALUE DENSITY
     --------------------------------------------------------

          -----------------
          ENERGY COMPONENTS
          -----------------

         WAVEFUNCTION NORMALIZATION =       1.0000000000

                ONE ELECTRON ENERGY =    -203.1492368498
                TWO ELECTRON ENERGY =      65.4883691361
           NUCLEAR REPULSION ENERGY =      28.8107613475
                                      ------------------
                       TOTAL ENERGY =    -108.8501063661

 ELECTRON-ELECTRON POTENTIAL ENERGY =      65.4883691361
  NUCLEUS-ELECTRON POTENTIAL ENERGY =    -313.8303161200
   NUCLEUS-NUCLEUS POTENTIAL ENERGY =      28.8107613475
                                      ------------------
             TOTAL POTENTIAL ENERGY =    -219.5311856363
               TOTAL KINETIC ENERGY =     110.6810792702
                 VIRIAL RATIO (V/T) =       1.9834572186

          ---------------------------------------
          MULLIKEN AND LOWDIN POPULATION ANALYSES
          ---------------------------------------

               ----- POPULATIONS IN EACH AO -----
                             MULLIKEN      LOWDIN
              1  N  1  S      1.99978     1.99665
              2  N  1  S      0.89984     0.77852
              3  N  1  S      0.82414     0.68603
              4  N  1  X      0.86919     0.78307
              5  N  1  Y      0.86919     0.78307
              6  N  1  Z      1.17822     1.17172
              7  N  1  X      0.13471     0.22083
              8  N  1  Y      0.13471     0.22083
              9  N  1  Z      0.09022     0.35927
             10  N  2  S      1.99978     1.99665
             11  N  2  S      0.89984     0.77852
             12  N  2  S      0.82414     0.68603
             13  N  2  X      0.86919     0.78307
             14  N  2  Y      0.86919     0.78307
             15  N  2  Z      1.17822     1.17172
             16  N  2  X      0.13471     0.22083
             17  N  2  Y      0.13471     0.22083
             18  N  2  Z      0.09022     0.35927

          ----- MULLIKEN ATOMIC OVERLAP POPULATIONS -----
          (OFF-DIAGONAL ELEMENTS NEED TO BE MULTIPLIED BY 2)

             1           2

    1    6.2791571
    2    0.7208429   6.2791571

          TOTAL MULLIKEN AND LOWDIN ATOMIC POPULATIONS
       ATOM         MULL.POP.    CHARGE          LOW.POP.     CHARGE
    1 N             7.000000    0.000000         7.000000    0.000000
    2 N             7.000000    0.000000         7.000000    0.000000

          ---------------------
          ELECTROSTATIC MOMENTS
          ---------------------

 POINT   1           X           Y           Z (BOHR)    CHARGE
                 0.000000    0.000000    0.850377        0.00 (A.U.)
         DX          DY          DZ         /D/  (DEBYE)
     0.000000    0.000000    0.000000    0.000000
 ...... END OF PROPERTY EVALUATION ......
 CPU     0: STEP CPU TIME=     0.01 TOTAL CPU TIME=       45.7 (    0.8 MIN)
 TOTAL WALL CLOCK TIME=       59.8 SECONDS, CPU UTILIZATION IS  76.44%
             119866853  WORDS OF DYNAMIC MEMORY USED
 EXECUTION OF GAMESS TERMINATED NORMALLY Thu Jan 17 17:40:30 2019
 DDI: 305760 bytes (0.3 MB / 0 MWords) used by master data server.

 ----------------------------------------
 CPU timing information for all processes
 ========================================
 0: 42.344 + 3.500 = 45.844
 1: 41.580 + 3.784 = 45.364
 2: 41.548 + 3.832 = 45.380
 3: 41.848 + 4.240 = 46.88
 4: 41.916 + 3.768 = 45.684
 5: 41.712 + 3.64 = 44.776
 6: 41.748 + 3.920 = 45.668
 7: 41.104 + 4.92 = 45.196
 8: 41.352 + 3.60 = 44.412
 9: 41.92 + 3.184 = 44.276
 10: 41.872 + 3.352 = 45.224
 11: 41.308 + 2.908 = 44.216
 12: 0.156 + 1.468 = 1.624
 13: 0.00 + 0.08 = 0.08
 14: 0.04 + 0.04 = 0.08
 15: 0.00 + 0.08 = 0.08
 16: 0.00 + 0.08 = 0.08
 17: 0.04 + 0.04 = 0.08
 18: 0.04 + 0.04 = 0.08
 19: 0.04 + 0.00 = 0.04
 20: 0.04 + 0.00 = 0.04
 21: 0.04 + 0.00 = 0.04
 22: 0.08 + 0.00 = 0.08
 23: 0.04 + 0.04 = 0.08
 ----------------------------------------
 ddikick.x: exited gracefully.
unset echo
----- accounting info -----
Files used on the master node localhost were:
-rw-rw-r-- 1 maho maho    13429 Jan 17 17:40 ./N2.SV/0.9/N2.SV.fullCI.0.9.gamess.dat
-rw------- 1 maho maho     1813 Jan 17 17:39 ./N2.SV/0.9/N2.SV.fullCI.0.9.gamess.F05
-rw-rw-r-- 1 maho maho   180016 Jan 17 17:39 ./N2.SV/0.9/N2.SV.fullCI.0.9.gamess.F08
-rw-rw-r-- 1 maho maho     1376 Jan 17 17:39 ./N2.SV/0.9/N2.SV.fullCI.0.9.gamess.F09
-rw-rw-r-- 1 maho maho  1865040 Jan 17 17:40 ./N2.SV/0.9/N2.SV.fullCI.0.9.gamess.F10
-rw-rw-r-- 1 maho maho 38216480 Jan 17 17:40 ./N2.SV/0.9/N2.SV.fullCI.0.9.gamess.F12
-rw------- 1 maho maho     1813 Jan 17 17:39 ./N2.SV/0.9/N2.SV.fullCI.0.9.gamess.inp
-rw-rw-r-- 1 maho maho    45640 Jan 17 17:40 ./N2.SV/0.9/N2.SV.fullCI.0.9.gamess.log
ls: No match.
ls: No match.
ls: No match.
Thu Jan 17 17:40:33 JST 2019
0.0u 0.0s 1:03.23 0.1% 0+0k 0+8io 0pf+0w
