----- GAMESS execution script 'rungms' -----
This job is running on host bach.ad64.riken.go.jp
under operating system Darwin at 2019年 1月17日 木曜日 17時51分35秒 JST
Available scratch disk space (Kbyte units) at beginning of the job is
Filesystem   1024-blocks       Used Available Capacity iused      ifree %iused  Mounted on
/dev/disk2s2  1953178672 1144753564 808425108    59%  984481 4293982798    0%   /Volumes/Users
GAMESS temporary binary files will be written to ./
GAMESS supplementary output files will be written to ./
Copying input file LiH.631g/4.0/LiH.631g.fullCI.4.0.gamess.inp to your run's scratch directory...
cp LiH.631g/4.0/LiH.631g.fullCI.4.0.gamess.inp .//LiH.631g/4.0/LiH.631g.fullCI.4.0.gamess.F05
unset echo
/Volumes/Users/maho/bin/gamess//ddikick.x /Volumes/Users/maho/bin/gamess//gamess.00.x LiH.631g/4.0/LiH.631g.fullCI.4.0.gamess -ddi 1 1 bach.ad64.riken.go.jp -scr ./

 Distributed Data Interface kickoff program.
 Initiating 1 compute processes on 1 nodes to run the following command:
 /Volumes/Users/maho/bin/gamess//gamess.00.x LiH.631g/4.0/LiH.631g.fullCI.4.0.gamess 

          ******************************************************
          *         GAMESS VERSION = 18 AUG 2016 (R1)          *
          *             FROM IOWA STATE UNIVERSITY             *
          * M.W.SCHMIDT, K.K.BALDRIDGE, J.A.BOATZ, S.T.ELBERT, *
          *   M.S.GORDON, J.H.JENSEN, S.KOSEKI, N.MATSUNAGA,   *
          *          K.A.NGUYEN, S.J.SU, T.L.WINDUS,           *
          *       TOGETHER WITH M.DUPUIS, J.A.MONTGOMERY       *
          *         J.COMPUT.CHEM.  14, 1347-1363(1993)        *
          **************** 64 BIT APPLE VERSION ****************

  SINCE 1993, STUDENTS AND POSTDOCS WORKING AT IOWA STATE UNIVERSITY
  AND ALSO IN THEIR VARIOUS JOBS AFTER LEAVING ISU HAVE MADE IMPORTANT
  CONTRIBUTIONS TO THE CODE:
     IVANA ADAMOVIC, CHRISTINE AIKENS, YURI ALEXEEV, POOJA ARORA,
     ANDREY ASADCHEV, ROB BELL, PRADIPTA BANDYOPADHYAY, JONATHAN BENTZ,
     BRETT BODE, KURT BRORSEN, CALEB CARLIN, GALINA CHABAN, WEI CHEN,
     CHEOL HO CHOI, PAUL DAY, ALBERT DEFUSCO, NUWAN DESILVA, TIM DUDLEY,
     DMITRI FEDOROV, GRAHAM FLETCHER, MARK FREITAG, KURT GLAESEMANN,
     DAN KEMP, GRANT MERRILL, NORIYUKI MINEZAWA, JONATHAN MULLIN,
     TAKESHI NAGATA, SEAN NEDD, HEATHER NETZLOFF, BOSILJKA NJEGIC, RYAN OLSON,
     MIKE PAK, SPENCER PRUITT, LUKE ROSKOP, JIM SHOEMAKER, LYUDMILA SLIPCHENKO,
     TONY SMITH, SAROM SOK LEANG, JIE SONG, TETSUYA TAKETSUGU, SIMON WEBB,
     PENG XU, SOOHAENG YOO, FEDERICO ZAHARIEV

  ADDITIONAL CODE HAS BEEN PROVIDED BY COLLABORATORS IN OTHER GROUPS:
     IOWA STATE UNIVERSITY:
          JOE IVANIC, AARON WEST, LAIMUTIS BYTAUTAS, KLAUS RUEDENBERG
     UNIVERSITY OF TOKYO: KIMIHIKO HIRAO, TAKAHITO NAKAJIMA,
          TAKAO TSUNEDA, MUNEAKI KAMIYA, SUSUMU YANAGISAWA,
          KIYOSHI YAGI, MAHITO CHIBA, SEIKEN TOKURA, NAOAKI KAWAKAMI
     UNIVERSITY OF AARHUS: FRANK JENSEN
     UNIVERSITY OF IOWA: VISVALDAS KAIRYS, HUI LI
     NATIONAL INST. OF STANDARDS AND TECHNOLOGY: WALT STEVENS, DAVID GARMER
     UNIVERSITY OF PISA: BENEDETTA MENNUCCI, JACOPO TOMASI
     UNIVERSITY OF MEMPHIS: HENRY KURTZ, PRAKASHAN KORAMBATH
     UNIVERSITY OF ALBERTA: TOBY ZENG, MARIUSZ KLOBUKOWSKI
     UNIVERSITY OF NEW ENGLAND: MARK SPACKMAN
     MIE UNIVERSITY: HIROAKI UMEDA
     NAT. INST. OF ADVANCED INDUSTRIAL SCIENCE AND TECHNOLOGY: KAZUO KITAURA
     MICHIGAN STATE UNIVERSITY:
          KAROL KOWALSKI, MARTA WLOCH, JEFFREY GOUR, JESSE LUTZ,
          WEI LI, PIOTR PIECUCH
     UNIVERSITY OF SILESIA: MONIKA MUSIAL, STANISLAW KUCHARSKI
     FACULTES UNIVERSITAIRES NOTRE-DAME DE LA PAIX:
          OLIVIER QUINET, BENOIT CHAMPAGNE
     UNIVERSITY OF CALIFORNIA - SANTA BARBARA: BERNARD KIRTMAN
     INSTITUTE FOR MOLECULAR SCIENCE:
          KAZUYA ISHIMURA, MICHIO KATOUDA, AND SHIGERU NAGASE
     UNIVERSITY OF NOTRE DAME: ANNA POMOGAEVA, DAN CHIPMAN
     KYUSHU UNIVERSITY:
          HARUYUKI NAKANO,
          FENG LONG GU, JACEK KORCHOWIEC, MARCIN MAKOWSKI, AND YURIKO AOKI,
          HIROTOSHI MORI AND EISAKU MIYOSHI
     PENNSYLVANIA STATE UNIVERSITY:
          TZVETELIN IORDANOV, CHET SWALINA, JONATHAN SKONE,
          SHARON HAMMES-SCHIFFER
     WASEDA UNIVERSITY:
          MASATO KOBAYASHI, TOMOKO AKAMA, TSUGUKI TOUMA,
          TAKESHI YOSHIKAWA, YASUHIRO IKABATA, JUNJI SEINO,
          YUYA NAKAJIMA, HIROMI NAKAI
     NANJING UNIVERSITY: SHUHUA LI
     UNIVERSITY OF NEBRASKA:
          PEIFENG SU, DEJUN SI, NANDUN THELLAMUREGE, YALI WANG, HUI LI
     UNIVERSITY OF ZURICH: ROBERTO PEVERATI, KIM BALDRIDGE
     N. COPERNICUS UNIVERSITY AND JACKSON STATE UNIVERSITY:
          MARIA BARYSZ
     UNIVERSITY OF COPENHAGEN: Jimmy Kromann, CASPER STEINMANN
     TOKYO INSTITUTE OF TECHNOLOGY: HIROYA NAKATA
     NAGOYA UNIVERSITY: YOSHIO NISHIMOTO, STEPHAN IRLE
     MOSCOW STATE UNIVERSITY: VLADIMIR MIRONOV

 EXECUTION OF GAMESS BEGUN Thu Jan 17 17:51:36 2019

            ECHO OF THE FIRST FEW INPUT CARDS -
 INPUT CARD> $CONTRL SCFTYP=RHF CITYP=ALDET $END                                            
 INPUT CARD> $GUESS  GUESS=HUCKEL $END                                                      
 INPUT CARD> $BASIS GBASIS=N31 NGAUSS=6 NDFUNC=1 NPFUNC=1 $END                              
 INPUT CARD> $CIDET SZ=0 GROUP=C2V NCORE=0 NACT=20 NELS=4 $END                              
 INPUT CARD> $DATA                                                                          
 INPUT CARD>LiH...HF...6-31G* basis                                                         
 INPUT CARD>Cnv   2                                                                         
 INPUT CARD>                                                                                
 INPUT CARD>Li    3.0    0.0      0.0     0.0                                               
 INPUT CARD>H     1.0    0.0      0.0     4.0                                               
 INPUT CARD> $END                                                                           
    1000000 WORDS OF MEMORY AVAILABLE

     BASIS OPTIONS
     -------------
     GBASIS=N31          IGAUSS=       6      POLAR=POPN31  
     NDFUNC=       1     NFFUNC=       0     DIFFSP=       F
     NPFUNC=       1      DIFFS=       F     BASNAM=        


     RUN TITLE
     ---------
 LiH...HF...6-31G* basis                                                         

 THE POINT GROUP OF THE MOLECULE IS CNV     
 THE ORDER OF THE PRINCIPAL AXIS IS     2

 ATOM      ATOMIC                      COORDINATES (BOHR)
           CHARGE         X                   Y                   Z
 LI          3.0     0.0000000000        0.0000000000        0.0000000000
 H           1.0     0.0000000000        0.0000000000        7.5589039509

          INTERNUCLEAR DISTANCES (ANGS.)
          ------------------------------

                1 LI         2 H     

   1 LI      0.0000000    4.0000000  
   2 H       4.0000000    0.0000000  

  * ... LESS THAN  3.000


     ATOMIC BASIS SET
     ----------------
 THE CONTRACTED PRIMITIVE FUNCTIONS HAVE BEEN UNNORMALIZED
 THE CONTRACTED BASIS FUNCTIONS ARE NOW NORMALIZED TO UNITY

  SHELL TYPE  PRIMITIVE        EXPONENT          CONTRACTION COEFFICIENT(S)

 LI        

      1   S       1           642.4189150    0.002142607810
      1   S       2            96.7985153    0.016208871501
      1   S       3            22.0911212    0.077315572504
      1   S       4             6.2010702    0.245786052013
      1   S       5             1.9351177    0.470189004025
      1   S       6             0.6367358    0.345470845019

      2   L       7             2.3249184   -0.035091745735    0.008941508043
      2   L       8             0.6324304   -0.191232843103    0.141009464046
      2   L       9             0.0790534    1.083987794916    0.945363695309

      3   L      10             0.0359620    1.000000000000    1.000000000000

      4   D      11             0.2000000    1.000000000000

 H         

      5   S      12            18.7311370    0.033494604338
      5   S      13             2.8253944    0.234726953484
      5   S      14             0.6401217    0.813757326146

      6   S      15             0.1612778    1.000000000000

      7   P      16             1.1000000    1.000000000000

 TOTAL NUMBER OF BASIS SET SHELLS             =    7
 NUMBER OF CARTESIAN GAUSSIAN BASIS FUNCTIONS =   20
 NUMBER OF ELECTRONS                          =    4
 CHARGE OF MOLECULE                           =    0
 SPIN MULTIPLICITY                            =    1
 NUMBER OF OCCUPIED ORBITALS (ALPHA)          =    2
 NUMBER OF OCCUPIED ORBITALS (BETA )          =    2
 TOTAL NUMBER OF ATOMS                        =    2
 THE NUCLEAR REPULSION ENERGY IS        0.3968829369

 THIS MOLECULE IS RECOGNIZED AS BEING LINEAR,
 ORBITAL LZ DEGENERACY TOLERANCE ETOLLZ= 1.00E-06

     $CONTRL OPTIONS
     ---------------
 SCFTYP=RHF          RUNTYP=ENERGY       EXETYP=RUN     
 MPLEVL=       0     CITYP =ALDET        CCTYP =NONE         VBTYP =NONE    
 DFTTYP=NONE         TDDFT =NONE    
 MULT  =       1     ICHARG=       0     NZVAR =       0     COORD =UNIQUE  
 PP    =NONE         RELWFN=NONE         LOCAL =NONE         NUMGRD=       F
 ISPHER=      -1     NOSYM =       0     MAXIT =      30     UNITS =ANGS    
 PLTORB=       F     MOLPLT=       F     AIMPAC=       F     FRIEND=        
 NPRINT=       7     IREST =       0     GEOM  =INPUT   
 NORMF =       0     NORMP =       0     ITOL  =      20     ICUT  =       9
 INTTYP=BEST         GRDTYP=BEST         QMTTOL= 1.0E-06

     $SYSTEM OPTIONS
     ---------------
  REPLICATED MEMORY=     1000000 WORDS (ON EVERY NODE).
 DISTRIBUTED MEMDDI=           0 MILLION WORDS IN AGGREGATE,
 MEMDDI DISTRIBUTED OVER   1 PROCESSORS IS           0 WORDS/PROCESSOR.
 TOTAL MEMORY REQUESTED ON EACH PROCESSOR=     1000000 WORDS.
 TIMLIM=      525600.00 MINUTES, OR     365.0 DAYS.
 PARALL= F  BALTYP=  DLB     KDIAG=    0  COREFL= F
 MXSEQ2=     300 MXSEQ3=     150  mem10=         0

          ----------------
          PROPERTIES INPUT
          ----------------

     MOMENTS            FIELD           POTENTIAL          DENSITY
 IEMOM =       1   IEFLD =       0   IEPOT =       0   IEDEN =       0
 WHERE =COMASS     WHERE =NUCLEI     WHERE =NUCLEI     WHERE =NUCLEI  
 OUTPUT=BOTH       OUTPUT=BOTH       OUTPUT=BOTH       OUTPUT=BOTH    
 IEMINT=       0   IEFINT=       0                     IEDINT=       0
                                                       MORB  =       0
          EXTRAPOLATION IN EFFECT
          SOSCF IN EFFECT
 ORBITAL PRINTING OPTION: NPREO=     1    20     2     1

     -------------------------------
     INTEGRAL TRANSFORMATION OPTIONS
     -------------------------------
     NWORD  =            0
     CUTOFF = 1.0E-09     MPTRAN =       0
     DIRTRF =       F     AOINTS =DUP     

          ----------------------
          INTEGRAL INPUT OPTIONS
          ----------------------
 NOPK  =       1 NORDER=       0 SCHWRZ=       F

     ------------------------------------------
     THE POINT GROUP IS CNV, NAXIS= 2, ORDER= 4
     ------------------------------------------

     DIMENSIONS OF THE SYMMETRY SUBSPACES ARE
 A1  =   11     A2  =    1     B1  =    4     B2  =    4

 ..... DONE SETTING UP THE RUN .....
 STEP CPU TIME =     0.00 TOTAL CPU TIME =        0.0 (    0.0 MIN)
 TOTAL WALL CLOCK TIME=        0.0 SECONDS, CPU UTILIZATION IS   0.00%

          ********************
          1 ELECTRON INTEGRALS
          ********************
 ...... END OF ONE-ELECTRON INTEGRALS ......
 STEP CPU TIME =     0.00 TOTAL CPU TIME =        0.0 (    0.0 MIN)
 TOTAL WALL CLOCK TIME=        0.0 SECONDS, CPU UTILIZATION IS   0.00%

          -------------
          GUESS OPTIONS
          -------------
          GUESS =HUCKEL            NORB  =       0          NORDER=       0
          MIX   =       F          PRTMO =       F          PUNMO =       F
          TOLZ  = 1.0E-08          TOLE  = 1.0E-05
          SYMDEN=       F          PURIFY=       F

 INITIAL GUESS ORBITALS GENERATED BY HUCKEL   ROUTINE.
 HUCKEL GUESS REQUIRES      4469 WORDS.

 SYMMETRIES FOR INITIAL GUESS ORBITALS FOLLOW.   BOTH SET(S).
     2 ORBITALS ARE OCCUPIED (    1 CORE ORBITALS).
     2=A1       3=A1       4=A1       5=A1       6=A1       7=A1       8=A1  
     9=A1      10=A1      11=A1      12=A2  
 ...... END OF INITIAL ORBITAL SELECTION ......
 STEP CPU TIME =     0.00 TOTAL CPU TIME =        0.0 (    0.0 MIN)
 TOTAL WALL CLOCK TIME=        0.0 SECONDS, CPU UTILIZATION IS   0.00%

                    ----------------------
                    AO INTEGRAL TECHNOLOGY
                    ----------------------
     S,P,L SHELL ROTATED AXIS INTEGRALS, REPROGRAMMED BY
        KAZUYA ISHIMURA (IMS) AND JOSE SIERRA (SYNSTAR).
     S,P,D,L SHELL ROTATED AXIS INTEGRALS PROGRAMMED BY
        KAZUYA ISHIMURA (INSTITUTE FOR MOLECULAR SCIENCE).
     S,P,D,F,G SHELL TO TOTAL QUARTET ANGULAR MOMENTUM SUM 5,
        ERIC PROGRAM BY GRAHAM FLETCHER (ELORET AND NASA ADVANCED
        SUPERCOMPUTING DIVISION, AMES RESEARCH CENTER).
     S,P,D,F,G,L SHELL GENERAL RYS QUADRATURE PROGRAMMED BY
        MICHEL DUPUIS (PACIFIC NORTHWEST NATIONAL LABORATORY).

          --------------------
          2 ELECTRON INTEGRALS
          --------------------

 THE -PK- OPTION IS OFF, THE INTEGRALS ARE NOT IN SUPERMATRIX FORM.
 STORING   15000 INTEGRALS/RECORD ON DISK, USING 12 BYTES/INTEGRAL.
 TWO ELECTRON INTEGRAL EVALUATION REQUIRES   90424 WORDS OF MEMORY.
 II,JST,KST,LST =  1  1  1  1 NREC =         1 INTLOC =    1
 II,JST,KST,LST =  2  1  1  1 NREC =         1 INTLOC =    2
 II,JST,KST,LST =  3  1  1  1 NREC =         1 INTLOC =   34
 II,JST,KST,LST =  4  1  1  1 NREC =         1 INTLOC =  214
 II,JST,KST,LST =  5  1  1  1 NREC =         1 INTLOC = 1189
 II,JST,KST,LST =  6  1  1  1 NREC =         1 INTLOC = 1806
 II,JST,KST,LST =  7  1  1  1 NREC =         1 INTLOC = 2642
 TOTAL NUMBER OF NONZERO TWO-ELECTRON INTEGRALS =                5277
          1 INTEGRAL RECORDS WERE STORED ON DISK FILE  8.
  ...... END OF TWO-ELECTRON INTEGRALS .....
 STEP CPU TIME =     0.02 TOTAL CPU TIME =        0.0 (    0.0 MIN)
 TOTAL WALL CLOCK TIME=        0.0 SECONDS, CPU UTILIZATION IS  66.67%

          --------------------------
                 RHF SCF CALCULATION
          --------------------------

     NUCLEAR ENERGY =         0.3968829369
     MAXIT =   30     NPUNCH=    2
     EXTRAP=T  DAMP=F  SHIFT=F  RSTRCT=F  DIIS=F  DEM=F  SOSCF=T
     DENSITY MATRIX CONV=  1.00E-06
     SOSCF WILL OPTIMIZE      36 ORBITAL ROTATIONS, SOGTOL=   0.250
     MEMORY REQUIRED FOR RHF ITERS=     33224 WORDS.

 ITER EX DEM     TOTAL ENERGY        E CHANGE  DENSITY CHANGE     ORB. GRAD
   1  0  0       -7.5237021842    -7.5237021842   1.150989373   0.000000000
          ---------------START SECOND ORDER SCF---------------
 SOSCF IS SCALING ROTATION ANGLE MATRIX, SQCDF=    0.164260
   2  1  0       -7.4719055431     0.0517966412   0.485216620   0.083340269
 SOSCF IS SCALING ROTATION ANGLE MATRIX, SQCDF=    1.408853
   3  2  0       -7.7134763913    -0.2415708483   1.306338454   0.104540031
 SOSCF IS SCALING ROTATION ANGLE MATRIX, SQCDF=    0.111425
   4  3  0       -7.7696839775    -0.0562075861   0.448778118   0.068893471
   5  4  0       -7.8243741496    -0.0546901722   0.192702757   0.057216558
   6  5  0       -7.8478274994    -0.0234533497   0.187257802   0.021732523
   7  6  0       -7.8572735432    -0.0094460438   0.074283796   0.005497452
   8  7  0       -7.8581027476    -0.0008292044   0.010146353   0.003842263
   9  8  0       -7.8581692857    -0.0000665382   0.003513229   0.000456840
  10  9  0       -7.8581744046    -0.0000051189   0.000732283   0.000197448
  11 10  0       -7.8581745071    -0.0000001025   0.000086238   0.000032866
  12 11  0       -7.8581745095    -0.0000000023   0.000003177   0.000001535
  13 12  0       -7.8581745095    -0.0000000000   0.000000485   0.000000173
  14 13  0       -7.8581745095    -0.0000000000   0.000000029   0.000000020

          -----------------
          DENSITY CONVERGED
          -----------------
     TIME TO FORM FOCK OPERATORS=       0.0 SECONDS (       0.0 SEC/ITER)
     TIME TO SOLVE SCF EQUATIONS=       0.0 SECONDS (       0.0 SEC/ITER)

 FINAL RHF ENERGY IS       -7.8581745095 AFTER  14 ITERATIONS

 LZ VALUE ANALYSIS FOR THE MOS
 ----------------------------------------
 MO     1 (    1) HAS LZ(WEIGHT)= 0.00(100.0%) 
 MO     2 (    2) HAS LZ(WEIGHT)= 0.00(100.0%) 
 MO     3 (    3) HAS LZ(WEIGHT)= 0.00(100.0%) 
 MO     4 (    4) HAS LZ(WEIGHT)=-1.00( 50.0%)  1.00( 50.0%) 
 MO     5 (    4) HAS LZ(WEIGHT)=-1.00( 50.0%)  1.00( 50.0%) 
 MO     6 (    5) HAS LZ(WEIGHT)= 0.00(100.0%) 
 MO     7 (    6) HAS LZ(WEIGHT)= 0.00(100.0%) 
 MO     8 (    7) HAS LZ(WEIGHT)=-1.00( 50.0%)  1.00( 50.0%) 
 MO     9 (    7) HAS LZ(WEIGHT)=-1.00( 50.0%)  1.00( 50.0%) 
 MO    10 (    8) HAS LZ(WEIGHT)= 0.00(100.0%) 
 MO    11 (    9) HAS LZ(WEIGHT)=-2.00( 50.0%)  2.00( 50.0%) 
 MO    12 (    9) HAS LZ(WEIGHT)=-2.00( 50.0%)  2.00( 50.0%) 
 MO    13 (   10) HAS LZ(WEIGHT)=-1.00( 50.0%)  1.00( 50.0%) 
 MO    14 (   10) HAS LZ(WEIGHT)=-1.00( 50.0%)  1.00( 50.0%) 
 MO    15 (   11) HAS LZ(WEIGHT)= 0.00(100.0%) 
 MO    16 (   12) HAS LZ(WEIGHT)= 0.00(100.0%) 
 MO    17 (   13) HAS LZ(WEIGHT)= 0.00(100.0%) 
 MO    18 (   14) HAS LZ(WEIGHT)=-1.00( 50.0%)  1.00( 50.0%) 
 MO    19 (   14) HAS LZ(WEIGHT)=-1.00( 50.0%)  1.00( 50.0%) 
 MO    20 (   15) HAS LZ(WEIGHT)= 0.00(100.0%) 

          ------------
          EIGENVECTORS
          ------------

                      1          2          3          4          5
                   -2.5792    -0.1957    -0.0424     0.0259     0.0259
                     A1         A1         A1         B1         B2  
    1  LI 1  S    0.998760  -0.089601  -0.161114  -0.000000  -0.000000
    2  LI 1  S   -0.012315  -0.061991   0.054845  -0.000000  -0.000000
    3  LI 1  X    0.000000  -0.000000  -0.000000   0.224839  -0.000000
    4  LI 1  Y    0.000000  -0.000000  -0.000000  -0.000000   0.224839
    5  LI 1  Z   -0.003107   0.006652  -0.111750  -0.000000  -0.000000
    6  LI 1  S    0.001974   0.463865   0.732042  -0.000000  -0.000000
    7  LI 1  X    0.000000  -0.000000  -0.000000   0.810176  -0.000000
    8  LI 1  Y    0.000000  -0.000000  -0.000000  -0.000000   0.810176
    9  LI 1  Z    0.002127   0.213678  -0.339453  -0.000000  -0.000000
   10  LI 1 XX    0.008811   0.024602   0.038115  -0.000000  -0.000000
   11  LI 1 YY    0.008811   0.024602   0.038115  -0.000000  -0.000000
   12  LI 1 ZZ    0.008650   0.044392   0.035945  -0.000000  -0.000000
   13  LI 1 XY    0.000000  -0.000000  -0.000000  -0.000000  -0.000000
   14  LI 1 XZ    0.000000  -0.000000  -0.000000  -0.028869  -0.000000
   15  LI 1 YZ    0.000000  -0.000000  -0.000000  -0.000000  -0.028869
   16  H  2  S    0.000050   0.241255  -0.098658  -0.000000  -0.000000
   17  H  2  S   -0.000196   0.582889  -0.241958  -0.000000  -0.000000
   18  H  2  X    0.000000  -0.000000  -0.000000   0.001227  -0.000000
   19  H  2  Y    0.000000  -0.000000  -0.000000  -0.000000   0.001227
   20  H  2  Z   -0.000015  -0.001356  -0.000954  -0.000000  -0.000000

                      6          7          8          9         10
                    0.0680     0.1512     0.1694     0.1694     0.2199
                     A1         A1         B1         B2         A1  
    1  LI 1  S   -0.046227   0.058404  -0.000000  -0.000000   0.069167
    2  LI 1  S    0.599301   2.240226  -0.000000  -0.000000   2.339998
    3  LI 1  X   -0.000000  -0.000000   1.657222  -0.000000  -0.000000
    4  LI 1  Y   -0.000000  -0.000000  -0.000000   1.657222  -0.000000
    5  LI 1  Z    0.244462  -1.213987  -0.000000  -0.000000   1.177259
    6  LI 1  S   -0.174224  -1.756225  -0.000000  -0.000000  -1.877599
    7  LI 1  X   -0.000000  -0.000000  -1.464662  -0.000000  -0.000000
    8  LI 1  Y   -0.000000  -0.000000  -0.000000  -1.464662  -0.000000
    9  LI 1  Z    0.681671   0.991700  -0.000000  -0.000000  -1.251793
   10  LI 1 XX   -0.005879  -0.227828  -0.000000  -0.000000  -0.203078
   11  LI 1 YY   -0.005879  -0.227828  -0.000000  -0.000000  -0.203078
   12  LI 1 ZZ   -0.097024  -0.170354  -0.000000  -0.000000  -0.224149
   13  LI 1 XY   -0.000000  -0.000000  -0.000000  -0.000000  -0.000000
   14  LI 1 XZ   -0.000000  -0.000000  -0.044824  -0.000000  -0.000000
   15  LI 1 YZ   -0.000000  -0.000000  -0.000000  -0.044824  -0.000000
   16  H  2  S   -0.115395   0.020509  -0.000000  -0.000000   0.040825
   17  H  2  S   -0.474919  -0.003866  -0.000000  -0.000000   0.387404
   18  H  2  X   -0.000000  -0.000000  -0.000951  -0.000000  -0.000000
   19  H  2  Y   -0.000000  -0.000000  -0.000000  -0.000951  -0.000000
   20  H  2  Z   -0.003667   0.001916  -0.000000  -0.000000   0.000123

                     11         12         13         14         15
                    0.5034     0.5034     0.5101     0.5101     0.5143
                     A1         A2         B1         B2         A1  
    1  LI 1  S    0.000000   0.000000  -0.000000  -0.000000  -0.002743
    2  LI 1  S    0.000000   0.000000  -0.000000  -0.000000   0.024701
    3  LI 1  X    0.000000   0.000000   0.080899  -0.000000   0.000000
    4  LI 1  Y    0.000000   0.000000  -0.000000   0.080899   0.000000
    5  LI 1  Z    0.000000   0.000000  -0.000000  -0.000000   0.070628
    6  LI 1  S    0.000000   0.000000  -0.000000  -0.000000   0.016646
    7  LI 1  X    0.000000   0.000000  -0.042337  -0.000000   0.000000
    8  LI 1  Y    0.000000   0.000000  -0.000000  -0.042337   0.000000
    9  LI 1  Z    0.000000   0.000000  -0.000000  -0.000000  -0.008329
   10  LI 1 XX    0.866025   0.000000  -0.000000  -0.000000  -0.510420
   11  LI 1 YY   -0.866025   0.000000  -0.000000  -0.000000  -0.510420
   12  LI 1 ZZ    0.000000   0.000000  -0.000000  -0.000000   0.982953
   13  LI 1 XY    0.000000   1.000000  -0.000000  -0.000000   0.000000
   14  LI 1 XZ    0.000000   0.000000   0.998577  -0.000000   0.000000
   15  LI 1 YZ    0.000000   0.000000  -0.000000   0.998577   0.000000
   16  H  2  S    0.000000   0.000000  -0.000000  -0.000000  -0.067735
   17  H  2  S    0.000000   0.000000  -0.000000  -0.000000  -0.012129
   18  H  2  X    0.000000   0.000000   0.000570  -0.000000   0.000000
   19  H  2  Y    0.000000   0.000000  -0.000000   0.000570   0.000000
   20  H  2  Z    0.000000   0.000000  -0.000000  -0.000000  -0.003650

                     16         17         18         19         20
                    1.1563     1.2007     2.4648     2.4648     2.4698
                     A1         A1         B1         B2         A1  
    1  LI 1  S    0.108852   0.047291   0.000000  -0.000000  -0.002485
    2  LI 1  S    9.168571   2.408210   0.000000  -0.000000   0.155570
    3  LI 1  X    0.000000  -0.000000   0.016630  -0.000000   0.000000
    4  LI 1  Y    0.000000  -0.000000   0.000000   0.016630   0.000000
    5  LI 1  Z    0.001410   0.119955   0.000000  -0.000000  -0.018575
    6  LI 1  S   -2.820616  -0.953830   0.000000  -0.000000   0.000392
    7  LI 1  X    0.000000  -0.000000  -0.024617  -0.000000   0.000000
    8  LI 1  Y    0.000000  -0.000000   0.000000  -0.024617   0.000000
    9  LI 1  Z    0.014972  -0.262228   0.000000  -0.000000   0.054547
   10  LI 1 XX   -3.061297  -0.698240   0.000000  -0.000000  -0.070331
   11  LI 1 YY   -3.061297  -0.698240   0.000000  -0.000000  -0.070331
   12  LI 1 ZZ   -3.047832  -0.806436   0.000000  -0.000000  -0.061358
   13  LI 1 XY    0.000000  -0.000000   0.000000  -0.000000   0.000000
   14  LI 1 XZ    0.000000  -0.000000  -0.000736  -0.000000   0.000000
   15  LI 1 YZ    0.000000  -0.000000   0.000000  -0.000736   0.000000
   16  H  2  S    0.290134  -1.283055   0.000000  -0.000000   0.015804
   17  H  2  S   -0.189833   1.156347   0.000000  -0.000000  -0.030626
   18  H  2  X    0.000000  -0.000000   1.000090  -0.000000   0.000000
   19  H  2  Y    0.000000  -0.000000   0.000000   1.000090   0.000000
   20  H  2  Z   -0.015443   0.001813   0.000000  -0.000000   1.000766
 ...... END OF RHF CALCULATION ......
 STEP CPU TIME =     0.01 TOTAL CPU TIME =        0.0 (    0.0 MIN)
 TOTAL WALL CLOCK TIME=        0.2 SECONDS, CPU UTILIZATION IS  18.75%

     ----------------------------------------------------------------
     PROPERTY VALUES FOR THE RHF   SELF-CONSISTENT FIELD WAVEFUNCTION
     ----------------------------------------------------------------

          -----------------
          ENERGY COMPONENTS
          -----------------

         WAVEFUNCTION NORMALIZATION =       1.0000000000

                ONE ELECTRON ENERGY =     -10.9602860960
                TWO ELECTRON ENERGY =       2.7052286496
           NUCLEAR REPULSION ENERGY =       0.3968829369
                                      ------------------
                       TOTAL ENERGY =      -7.8581745095

 ELECTRON-ELECTRON POTENTIAL ENERGY =       2.7052286496
  NUCLEUS-ELECTRON POTENTIAL ENERGY =     -18.7582409943
   NUCLEUS-NUCLEUS POTENTIAL ENERGY =       0.3968829369
                                      ------------------
             TOTAL POTENTIAL ENERGY =     -15.6561294078
               TOTAL KINETIC ENERGY =       7.7979548983
                 VIRIAL RATIO (V/T) =       2.0077224878

  ...... PI ENERGY ANALYSIS ......

 ENERGY ANALYSIS:
            FOCK ENERGY=     -5.5498287927
          BARE H ENERGY=    -10.9602860960
     ELECTRONIC ENERGY =     -8.2550574444
         KINETIC ENERGY=      7.7979548983
          N-N REPULSION=      0.3968829369
           TOTAL ENERGY=     -7.8581745074
        SIGMA PART(1+2)=     -8.2550574444
               (K,V1,2)=      7.7979548983    -18.7582409943      2.7052286517
           PI PART(1+2)=      0.0000000000
               (K,V1,2)=      0.0000000000      0.0000000000      0.0000000000
  SIGMA SKELETON, ERROR=     -7.8581745074      0.0000000000
             MIXED PART= 0.00000E+00 0.00000E+00 0.00000E+00 0.00000E+00
 ...... END OF PI ENERGY ANALYSIS ......

          ---------------------------------------
          MULLIKEN AND LOWDIN POPULATION ANALYSES
          ---------------------------------------

               ----- POPULATIONS IN EACH AO -----
                             MULLIKEN      LOWDIN
              1  LI 1  S      1.99797     1.97941
              2  LI 1  S     -0.05866     0.09849
              3  LI 1  X      0.00000     0.00000
              4  LI 1  Y      0.00000     0.00000
              5  LI 1  Z      0.00339     0.02840
              6  LI 1  S      0.49236     0.31921
              7  LI 1  X      0.00000     0.00000
              8  LI 1  Y      0.00000     0.00000
              9  LI 1  Z      0.17822     0.16024
             10  LI 1 XX      0.01529     0.02375
             11  LI 1 YY      0.01529     0.02375
             12  LI 1 ZZ      0.02890     0.03567
             13  LI 1 XY      0.00000     0.00000
             14  LI 1 XZ      0.00000     0.00000
             15  LI 1 YZ      0.00000     0.00000
             16  H  2  S      0.32077     0.38761
             17  H  2  S      1.00642     0.94336
             18  H  2  X      0.00000     0.00000
             19  H  2  Y      0.00000     0.00000
             20  H  2  Z      0.00004     0.00010

          ----- MULLIKEN ATOMIC OVERLAP POPULATIONS -----
          (OFF-DIAGONAL ELEMENTS NEED TO BE MULTIPLIED BY 2)

             1           2

    1    2.5117598
    2    0.1610092   1.1662218

          TOTAL MULLIKEN AND LOWDIN ATOMIC POPULATIONS
       ATOM         MULL.POP.    CHARGE          LOW.POP.     CHARGE
    1 LI            2.672769    0.327231         2.668931    0.331069
    2 H             1.327231   -0.327231         1.331069   -0.331069

          ---------------------
          ELECTROSTATIC MOMENTS
          ---------------------

 POINT   1           X           Y           Z (BOHR)    CHARGE
                 0.000000    0.000000    0.949429        0.00 (A.U.)
         DX          DY          DZ         /D/  (DEBYE)
     0.000000    0.000000  -11.188455   11.188455
 ...... END OF PROPERTY EVALUATION ......
 STEP CPU TIME =     0.01 TOTAL CPU TIME =        0.0 (    0.0 MIN)
 TOTAL WALL CLOCK TIME=        0.2 SECONDS, CPU UTILIZATION IS  25.00%

 DETERMINANT CI OPTIONS   NRNFG   NPFLG
 INTEGRAL TRANSFORMATION    1       0
 DIAGONALIZE HAMILTONIAN    1       0
 FORM 1E- DENSITY MATRIX    1       0
 FORM 2E- DENSITY MATRIX    0       0

     --------------------------------------------------
          AMES LABORATORY DETERMINANTAL FULL CI
     PROGRAM WRITTEN BY JOE IVANIC AND KLAUS RUEDENBERG
     --------------------------------------------------

 THE POINT GROUP                  =   C2V     
 THE STATE SYMMETRY               =   A1      
 NUMBER OF CORE ORBITALS          =    0
 NUMBER OF ACTIVE ORBITALS        =   20
 NUMBER OF ALPHA ELECTRONS        =    2 (   2 ACTIVE)
 NUMBER OF BETA ELECTRONS         =    2 (   2 ACTIVE)
 NUMBER OF OCCUPIED ORBITALS      =   20
 NUMBER OF CI STATES REQUESTED    =    1
 NUMBER OF CI STARTING VECTORS    =    1
 MAX. NO. OF CI EXPANSION VECTORS =   10
 SIZE OF INITIAL CI GUESS MATRIX  =  300
 MAX. NO. OF CI ITERS/STATE       =  100
 CI DIAGONALIZATION CRITERION     = 1.00E-06
 CI PROPERTIES WILL BE FOUND FOR ROOT NUMBER   1
 1E- DENSITY MATRIX OPTIONS ARE 1

 CORRELATION ENERGY ANALYSIS      =    F

 SYMMETRIES FOR THE   0 CORE,  20 ACTIVE ARE

   ACTIVE= A1    A1    A1    B1    B2    A1    A1    B1    B2    A1  
           A1    A2    B1    B2    A1    A1    A1    B1    B2    A1  

     --------------------------------------------
     PARTIAL TWO ELECTRON INTEGRAL TRANSFORMATION
     --------------------------------------------

 NUMBER OF CORE MOLECULAR ORBITALS     =    0
 NUMBER OF OCCUPIED MOLECULAR ORBITALS =   20
 TOTAL NUMBER OF MOLECULAR ORBITALS    =   20
 TOTAL NUMBER OF ATOMIC ORBITALS       =   20
 THRESHOLD FOR KEEPING TRANSFORMED 2E- INTEGRALS = 1.000E-09
 AO INTEGRALS WILL BE READ IN FROM DISK...

 PLAN A: REQUIREMENTS FOR FULLY IN-MEMORY TRANSFORMATION:
 # OF WORDS AVAILABLE =              1000000
 # OF WORDS NEEDED    =               146042

 CHOOSING IN MEMORY PARTIAL TRANSFORMATION...
 TOTAL NUMBER OF TRANSFORMED 2E- INTEGRALS KEPT =         5962
 ... END OF INTEGRAL TRANSFORMATION ...
 STEP CPU TIME =     0.00 TOTAL CPU TIME =        0.0 (    0.0 MIN)
 TOTAL WALL CLOCK TIME=        0.2 SECONDS, CPU UTILIZATION IS  23.53%

     --------------------------------------------------
          AMES LABORATORY DETERMINANTAL FULL CI
     PROGRAM WRITTEN BY JOE IVANIC AND KLAUS RUEDENBERG
     --------------------------------------------------

 THE NUMBER OF DETERMINANTS HAVING SPACE SYMMETRY A1 
 IN POINT GROUP C2V  WITH SZ=  0.0 IS           9826
 THE DETERMINANT FULL CI REQUIRES          451749 WORDS
 INITIAL CI VECTOR GUESS TIME  :          0.0
 INITIAL FULL CI ITERATION TIME:          0.0

 ITERATION      ENERGY           GRADIENT
     0       -7.9330117711     0.05268444
     1       -7.9334967662     0.00376702
     2       -7.9335074759     0.00165894
     3       -7.9335086601     0.00038254
     4       -7.9335088229     0.00026568
     5       -7.9335089317     0.00017799
     6       -7.9335089489     0.00004214
     7       -7.9335089510     0.00002280
     8       -7.9335089515     0.00000791
     9       -7.9335089515     0.00000195
    10       -7.9335089515     0.00000054

 CONVERGED STATE    1 ENERGY=       -7.9335089515 IN   10 ITERS

 ALL STATES CONVERGED.

 CI EIGENVECTORS WILL BE LABELED IN GROUP=C2V     
 PRINTING CI COEFFICIENTS LARGER THAN 5.000E-02

 STATE   1  ENERGY=        -7.9335089515  S=  0.00  SZ=  0.00  SPACE SYM=A1  

        ALPHA         |        BETA          | CI COEFFICIENT
----------------------|----------------------|---------------
 11000000000000000000 | 11000000000000000000 |   0.7201303749
 10100000000000000000 | 10100000000000000000 |  -0.3370571333
 11000000000000000000 | 10100000000000000000 |   0.3171396172
 10100000000000000000 | 11000000000000000000 |   0.3171396172
 10100000000000000000 | 10000100000000000000 |  -0.2445749436
 10000100000000000000 | 10100000000000000000 |  -0.2445749436
 10000100000000000000 | 10000100000000000000 |  -0.1483158935
 10100000000000000000 | 10000000000000001000 |  -0.0576895438
 10000000000000001000 | 10100000000000000000 |  -0.0576895438
 ..... DONE WITH DETERMINANT CI COMPUTATION .....
 STEP CPU TIME =     0.22 TOTAL CPU TIME =        0.3 (    0.0 MIN)
 TOTAL WALL CLOCK TIME=        0.4 SECONDS, CPU UTILIZATION IS  59.09%

     ---------------------------
     ONE PARTICLE DENSITY MATRIX
     ---------------------------

 DENSITY MATRIX WILL BE SAVED FOR   1-TH STATE WITH S= 0.00

 CI EIGENSTATE   1 TOTAL ENERGY =       -7.9335089515

          NATURAL ORBITALS IN ATOMIC ORBITAL BASIS
          ----------------------------------------

                      1          2          3          4          5
                    1.9998     1.3340     0.6656     0.0001     0.0001
                     A1         A1         A1         A1         A1  
    1  LI 1  S    0.998521  -0.124726  -0.141338   0.024879   0.036645
    2  LI 1  S   -0.006753   0.150731   0.231918   0.778315   3.135715
    3  LI 1  X   -0.000000   0.000000  -0.000000  -0.000000  -0.000000
    4  LI 1  Y   -0.000000   0.000000  -0.000000  -0.000000  -0.000000
    5  LI 1  Z   -0.000768   0.005694   0.013953   0.963369   0.473774
    6  LI 1  S    0.000557   0.480618   0.515358  -0.356969  -1.315413
    7  LI 1  X   -0.000000   0.000000  -0.000000  -0.000000  -0.000000
    8  LI 1  Y   -0.000000   0.000000  -0.000000  -0.000000  -0.000000
    9  LI 1  Z    0.000570   0.049018   0.025822  -0.088436  -0.373798
   10  LI 1 XX    0.007685   0.021658   0.018462  -0.335007  -0.847860
   11  LI 1 YY    0.007685   0.021658   0.018462  -0.335007  -0.847860
   12  LI 1 ZZ    0.007665   0.028163   0.018262  -0.040469  -0.801462
   13  LI 1 XY   -0.000000   0.000000  -0.000000  -0.000000  -0.000000
   14  LI 1 XZ   -0.000000   0.000000  -0.000000  -0.000000  -0.000000
   15  LI 1 YZ   -0.000000   0.000000  -0.000000  -0.000000  -0.000000
   16  H  2  S    0.000150   0.286726  -0.325975  -0.273447   1.082357
   17  H  2  S    0.000340   0.464992  -0.465921   0.181939  -0.888244
   18  H  2  X   -0.000000   0.000000  -0.000000  -0.000000  -0.000000
   19  H  2  Y   -0.000000   0.000000  -0.000000  -0.000000  -0.000000
   20  H  2  Z   -0.000017  -0.000040  -0.000201  -0.279917  -0.120204

                      6          7          8          9         10
                    0.0001     0.0001     0.0001     0.0000     0.0000
                     B1         B2         A1         B1         B2  
    1  LI 1  S   -0.000000  -0.000000   0.142804   0.000000   0.000000
    2  LI 1  S   -0.000000  -0.000000   8.915552   0.000000   0.000000
    3  LI 1  X    1.294579  -0.000000   0.000000  -0.920933   0.000000
    4  LI 1  Y   -0.000000   1.294579   0.000000   0.000000  -0.920933
    5  LI 1  Z   -0.000000  -0.000000  -0.392368   0.000000   0.000000
    6  LI 1  S   -0.000000  -0.000000  -3.651880   0.000000   0.000000
    7  LI 1  X   -0.452833  -0.000000   0.000000   1.172888   0.000000
    8  LI 1  Y   -0.000000  -0.452833   0.000000   0.000000   1.172888
    9  LI 1  Z   -0.000000  -0.000000   0.262042   0.000000   0.000000
   10  LI 1 XX   -0.000000  -0.000000  -2.551340   0.000000   0.000000
   11  LI 1 YY   -0.000000  -0.000000  -2.551340   0.000000   0.000000
   12  LI 1 ZZ   -0.000000  -0.000000  -2.529143   0.000000   0.000000
   13  LI 1 XY   -0.000000  -0.000000   0.000000   0.000000   0.000000
   14  LI 1 XZ    0.098624  -0.000000   0.000000   0.165820   0.000000
   15  LI 1 YZ   -0.000000   0.098624   0.000000   0.000000   0.165820
   16  H  2  S   -0.000000  -0.000000  -0.387795   0.000000   0.000000
   17  H  2  S   -0.000000  -0.000000   0.464979   0.000000   0.000000
   18  H  2  X    0.224133  -0.000000   0.000000   0.684522   0.000000
   19  H  2  Y   -0.000000   0.224133   0.000000   0.000000   0.684522
   20  H  2  Z   -0.000000  -0.000000  -0.017106   0.000000   0.000000

                     11         12         13         14         15
                    0.0000     0.0000     0.0000     0.0000     0.0000
                     A1         B1         B2         A1         A1  
    1  LI 1  S    0.028581  -0.000000  -0.000000  -0.008900   0.000366
    2  LI 1  S    1.397152  -0.000000  -0.000000  -0.118860  -1.058709
    3  LI 1  X    0.000000  -0.518535  -0.000000  -0.000000  -0.000000
    4  LI 1  Y    0.000000  -0.000000  -0.518535  -0.000000  -0.000000
    5  LI 1  Z    1.156713  -0.000000  -0.000000  -0.543543   0.092612
    6  LI 1  S   -0.638632  -0.000000  -0.000000   0.126024  -0.063290
    7  LI 1  X    0.000000   1.060384  -0.000000  -0.000000  -0.000000
    8  LI 1  Y    0.000000  -0.000000   1.060384  -0.000000  -0.000000
    9  LI 1  Z   -1.307504  -0.000000  -0.000000   1.077843  -0.374041
   10  LI 1 XX   -0.279958  -0.000000  -0.000000  -0.071159   0.095569
   11  LI 1 YY   -0.279958  -0.000000  -0.000000  -0.071159   0.095569
   12  LI 1 ZZ   -0.573081  -0.000000  -0.000000   0.170742   1.446980
   13  LI 1 XY    0.000000  -0.000000  -0.000000  -0.000000  -0.000000
   14  LI 1 XZ    0.000000   0.146423  -0.000000  -0.000000  -0.000000
   15  LI 1 YZ    0.000000  -0.000000   0.146423  -0.000000  -0.000000
   16  H  2  S   -0.315417  -0.000000  -0.000000   0.335048  -0.095145
   17  H  2  S    0.551637  -0.000000  -0.000000  -0.552466   0.185202
   18  H  2  X    0.000000  -0.692911  -0.000000  -0.000000  -0.000000
   19  H  2  Y    0.000000  -0.000000  -0.692911  -0.000000  -0.000000
   20  H  2  Z    0.599134  -0.000000  -0.000000   0.738750   0.056480

                     16         17         18         19         20
                    0.0000     0.0000     0.0000     0.0000     0.0000
                     B1         B2         A1         A2         A1  
    1  LI 1  S   -0.000000  -0.000000  -0.000000   0.000000  -0.010434
    2  LI 1  S   -0.000000  -0.000000  -0.000000   0.000000   2.767350
    3  LI 1  X    0.104053  -0.000000  -0.000000   0.000000  -0.000000
    4  LI 1  Y   -0.000000   0.104053  -0.000000   0.000000  -0.000000
    5  LI 1  Z   -0.000000  -0.000000  -0.000000   0.000000   0.054867
    6  LI 1  S   -0.000000  -0.000000  -0.000000   0.000000   0.372512
    7  LI 1  X   -0.314452  -0.000000  -0.000000   0.000000  -0.000000
    8  LI 1  Y   -0.000000  -0.314452  -0.000000   0.000000  -0.000000
    9  LI 1  Z   -0.000000  -0.000000  -0.000000   0.000000  -0.132490
   10  LI 1 XX   -0.000000  -0.000000   0.866025   0.000000  -1.669130
   11  LI 1 YY   -0.000000  -0.000000  -0.866025   0.000000  -1.669130
   12  LI 1 ZZ   -0.000000  -0.000000  -0.000000   0.000000  -1.228228
   13  LI 1 XY   -0.000000  -0.000000  -0.000000   1.000000  -0.000000
   14  LI 1 XZ    0.970225  -0.000000  -0.000000   0.000000  -0.000000
   15  LI 1 YZ   -0.000000   0.970225  -0.000000   0.000000  -0.000000
   16  H  2  S   -0.000000  -0.000000  -0.000000   0.000000   0.112533
   17  H  2  S   -0.000000  -0.000000  -0.000000   0.000000  -0.181115
   18  H  2  X   -0.035368  -0.000000  -0.000000   0.000000  -0.000000
   19  H  2  Y   -0.000000  -0.035368  -0.000000   0.000000  -0.000000
   20  H  2  Z   -0.000000  -0.000000  -0.000000   0.000000   0.028427
 ..... DONE WITH ONE PARTICLE DENSITY MATRIX .....
 STEP CPU TIME =     0.01 TOTAL CPU TIME =        0.3 (    0.0 MIN)
 TOTAL WALL CLOCK TIME=        0.5 SECONDS, CPU UTILIZATION IS  60.00%

     --------------------------------------------------------
     ALDET CI PROPERTIES...FOR THE WAVEFUNCTION OF STATE    1
               USING THE EXPECTATION VALUE DENSITY
     --------------------------------------------------------

          -----------------
          ENERGY COMPONENTS
          -----------------

         WAVEFUNCTION NORMALIZATION =       1.0000000000

                ONE ELECTRON ENERGY =     -11.0199468957
                TWO ELECTRON ENERGY =       2.6895550073
           NUCLEAR REPULSION ENERGY =       0.3968829369
                                      ------------------
                       TOTAL ENERGY =      -7.9335089515

 ELECTRON-ELECTRON POTENTIAL ENERGY =       2.6895550073
  NUCLEUS-ELECTRON POTENTIAL ENERGY =     -18.9634387694
   NUCLEUS-NUCLEUS POTENTIAL ENERGY =       0.3968829369
                                      ------------------
             TOTAL POTENTIAL ENERGY =     -15.8770008251
               TOTAL KINETIC ENERGY =       7.9434918736
                 VIRIAL RATIO (V/T) =       1.9987432577

          ---------------------------------------
          MULLIKEN AND LOWDIN POPULATION ANALYSES
          ---------------------------------------

               ----- POPULATIONS IN EACH AO -----
                             MULLIKEN      LOWDIN
              1  LI 1  S      1.99841     1.98563
              2  LI 1  S      0.23449     0.25882
              3  LI 1  X      0.00008     0.00006
              4  LI 1  Y      0.00008     0.00006
              5  LI 1  Z      0.00068     0.00244
              6  LI 1  S      0.67974     0.48279
              7  LI 1  X      0.00001     0.00002
              8  LI 1  Y      0.00001     0.00002
              9  LI 1  Z      0.01217     0.02158
             10  LI 1 XX      0.01991     0.08083
             11  LI 1 YY      0.01991     0.08083
             12  LI 1 ZZ      0.02406     0.08477
             13  LI 1 XY      0.00000     0.00000
             14  LI 1 XZ      0.00000     0.00000
             15  LI 1 YZ      0.00000     0.00000
             16  H  2  S      0.36826     0.39836
             17  H  2  S      0.64212     0.60365
             18  H  2  X      0.00002     0.00002
             19  H  2  Y      0.00002     0.00002
             20  H  2  Z      0.00003     0.00008

          ----- MULLIKEN ATOMIC OVERLAP POPULATIONS -----
          (OFF-DIAGONAL ELEMENTS NEED TO BE MULTIPLIED BY 2)

             1           2

    1    2.9598171
    2    0.0297189   0.9807451

          TOTAL MULLIKEN AND LOWDIN ATOMIC POPULATIONS
       ATOM         MULL.POP.    CHARGE          LOW.POP.     CHARGE
    1 LI            2.989536    0.010464         2.997864    0.002136
    2 H             1.010464   -0.010464         1.002136   -0.002136

          ---------------------
          ELECTROSTATIC MOMENTS
          ---------------------

 POINT   1           X           Y           Z (BOHR)    CHARGE
                 0.000000    0.000000    0.949429       -0.00 (A.U.)
         DX          DY          DZ         /D/  (DEBYE)
     0.000000    0.000000   -1.388600    1.388600
 ...... END OF PROPERTY EVALUATION ......
 STEP CPU TIME =     0.00 TOTAL CPU TIME =        0.3 (    0.0 MIN)
 TOTAL WALL CLOCK TIME=        0.5 SECONDS, CPU UTILIZATION IS  60.00%
               580000  WORDS OF DYNAMIC MEMORY USED
 EXECUTION OF GAMESS TERMINATED NORMALLY Thu Jan 17 17:51:36 2019
 DDI: 263640 bytes (0.3 MB / 0 MWords) used by master data server.

 ----------------------------------------
 CPU timing information for all processes
 ========================================
 0: 0.222 + 0.53 = 0.276
 1: 0.09 + 0.43 = 0.53
 ----------------------------------------
 ddikick.x: exited gracefully.
unset echo
----- accounting info -----
Files used on the master node bach.ad64.riken.go.jp were:
-rw-------  1 maho  staff      280  1 17 17:51 .//LiH.631g/4.0/LiH.631g.fullCI.4.0.gamess.F05
-rw-r--r--  1 maho  staff   180016  1 17 17:51 .//LiH.631g/4.0/LiH.631g.fullCI.4.0.gamess.F08
-rw-r--r--  1 maho  staff   181704  1 17 17:51 .//LiH.631g/4.0/LiH.631g.fullCI.4.0.gamess.F09
-rw-r--r--  1 maho  staff  1832320  1 17 17:51 .//LiH.631g/4.0/LiH.631g.fullCI.4.0.gamess.F10
-rw-r--r--  1 maho  staff    78640  1 17 17:51 .//LiH.631g/4.0/LiH.631g.fullCI.4.0.gamess.F12
-rw-r--r--  1 maho  staff    14499  1 17 17:51 .//LiH.631g/4.0/LiH.631g.fullCI.4.0.gamess.dat
-rw-------  1 maho  staff      280  1 17 17:51 .//LiH.631g/4.0/LiH.631g.fullCI.4.0.gamess.inp
-rw-r--r--  1 maho  staff    43488  1 17 17:51 .//LiH.631g/4.0/LiH.631g.fullCI.4.0.gamess.log
ls: No match.
ls: No match.
ls: No match.
2019年 1月17日 木曜日 17時51分39秒 JST
0.341u 0.188s 0:03.94 13.1%	0+0k 0+0io 0pf+0w
