----- GAMESS execution script 'rungms' -----
This job is running on host bach.ad64.riken.go.jp
under operating system Darwin at 2019年 1月17日 木曜日 17時51分32秒 JST
Available scratch disk space (Kbyte units) at beginning of the job is
Filesystem   1024-blocks       Used Available Capacity iused      ifree %iused  Mounted on
/dev/disk2s2  1953178672 1144753520 808425152    59%  984479 4293982800    0%   /Volumes/Users
GAMESS temporary binary files will be written to ./
GAMESS supplementary output files will be written to ./
Copying input file LiH.631g/4.0/LiH.631g.CCSDT.4.0.gamess.inp to your run's scratch directory...
cp LiH.631g/4.0/LiH.631g.CCSDT.4.0.gamess.inp .//LiH.631g/4.0/LiH.631g.CCSDT.4.0.gamess.F05
unset echo
/Volumes/Users/maho/bin/gamess//ddikick.x /Volumes/Users/maho/bin/gamess//gamess.00.x LiH.631g/4.0/LiH.631g.CCSDT.4.0.gamess -ddi 1 1 bach.ad64.riken.go.jp -scr ./

 Distributed Data Interface kickoff program.
 Initiating 1 compute processes on 1 nodes to run the following command:
 /Volumes/Users/maho/bin/gamess//gamess.00.x LiH.631g/4.0/LiH.631g.CCSDT.4.0.gamess 

          ******************************************************
          *         GAMESS VERSION = 18 AUG 2016 (R1)          *
          *             FROM IOWA STATE UNIVERSITY             *
          * M.W.SCHMIDT, K.K.BALDRIDGE, J.A.BOATZ, S.T.ELBERT, *
          *   M.S.GORDON, J.H.JENSEN, S.KOSEKI, N.MATSUNAGA,   *
          *          K.A.NGUYEN, S.J.SU, T.L.WINDUS,           *
          *       TOGETHER WITH M.DUPUIS, J.A.MONTGOMERY       *
          *         J.COMPUT.CHEM.  14, 1347-1363(1993)        *
          **************** 64 BIT APPLE VERSION ****************

  SINCE 1993, STUDENTS AND POSTDOCS WORKING AT IOWA STATE UNIVERSITY
  AND ALSO IN THEIR VARIOUS JOBS AFTER LEAVING ISU HAVE MADE IMPORTANT
  CONTRIBUTIONS TO THE CODE:
     IVANA ADAMOVIC, CHRISTINE AIKENS, YURI ALEXEEV, POOJA ARORA,
     ANDREY ASADCHEV, ROB BELL, PRADIPTA BANDYOPADHYAY, JONATHAN BENTZ,
     BRETT BODE, KURT BRORSEN, CALEB CARLIN, GALINA CHABAN, WEI CHEN,
     CHEOL HO CHOI, PAUL DAY, ALBERT DEFUSCO, NUWAN DESILVA, TIM DUDLEY,
     DMITRI FEDOROV, GRAHAM FLETCHER, MARK FREITAG, KURT GLAESEMANN,
     DAN KEMP, GRANT MERRILL, NORIYUKI MINEZAWA, JONATHAN MULLIN,
     TAKESHI NAGATA, SEAN NEDD, HEATHER NETZLOFF, BOSILJKA NJEGIC, RYAN OLSON,
     MIKE PAK, SPENCER PRUITT, LUKE ROSKOP, JIM SHOEMAKER, LYUDMILA SLIPCHENKO,
     TONY SMITH, SAROM SOK LEANG, JIE SONG, TETSUYA TAKETSUGU, SIMON WEBB,
     PENG XU, SOOHAENG YOO, FEDERICO ZAHARIEV

  ADDITIONAL CODE HAS BEEN PROVIDED BY COLLABORATORS IN OTHER GROUPS:
     IOWA STATE UNIVERSITY:
          JOE IVANIC, AARON WEST, LAIMUTIS BYTAUTAS, KLAUS RUEDENBERG
     UNIVERSITY OF TOKYO: KIMIHIKO HIRAO, TAKAHITO NAKAJIMA,
          TAKAO TSUNEDA, MUNEAKI KAMIYA, SUSUMU YANAGISAWA,
          KIYOSHI YAGI, MAHITO CHIBA, SEIKEN TOKURA, NAOAKI KAWAKAMI
     UNIVERSITY OF AARHUS: FRANK JENSEN
     UNIVERSITY OF IOWA: VISVALDAS KAIRYS, HUI LI
     NATIONAL INST. OF STANDARDS AND TECHNOLOGY: WALT STEVENS, DAVID GARMER
     UNIVERSITY OF PISA: BENEDETTA MENNUCCI, JACOPO TOMASI
     UNIVERSITY OF MEMPHIS: HENRY KURTZ, PRAKASHAN KORAMBATH
     UNIVERSITY OF ALBERTA: TOBY ZENG, MARIUSZ KLOBUKOWSKI
     UNIVERSITY OF NEW ENGLAND: MARK SPACKMAN
     MIE UNIVERSITY: HIROAKI UMEDA
     NAT. INST. OF ADVANCED INDUSTRIAL SCIENCE AND TECHNOLOGY: KAZUO KITAURA
     MICHIGAN STATE UNIVERSITY:
          KAROL KOWALSKI, MARTA WLOCH, JEFFREY GOUR, JESSE LUTZ,
          WEI LI, PIOTR PIECUCH
     UNIVERSITY OF SILESIA: MONIKA MUSIAL, STANISLAW KUCHARSKI
     FACULTES UNIVERSITAIRES NOTRE-DAME DE LA PAIX:
          OLIVIER QUINET, BENOIT CHAMPAGNE
     UNIVERSITY OF CALIFORNIA - SANTA BARBARA: BERNARD KIRTMAN
     INSTITUTE FOR MOLECULAR SCIENCE:
          KAZUYA ISHIMURA, MICHIO KATOUDA, AND SHIGERU NAGASE
     UNIVERSITY OF NOTRE DAME: ANNA POMOGAEVA, DAN CHIPMAN
     KYUSHU UNIVERSITY:
          HARUYUKI NAKANO,
          FENG LONG GU, JACEK KORCHOWIEC, MARCIN MAKOWSKI, AND YURIKO AOKI,
          HIROTOSHI MORI AND EISAKU MIYOSHI
     PENNSYLVANIA STATE UNIVERSITY:
          TZVETELIN IORDANOV, CHET SWALINA, JONATHAN SKONE,
          SHARON HAMMES-SCHIFFER
     WASEDA UNIVERSITY:
          MASATO KOBAYASHI, TOMOKO AKAMA, TSUGUKI TOUMA,
          TAKESHI YOSHIKAWA, YASUHIRO IKABATA, JUNJI SEINO,
          YUYA NAKAJIMA, HIROMI NAKAI
     NANJING UNIVERSITY: SHUHUA LI
     UNIVERSITY OF NEBRASKA:
          PEIFENG SU, DEJUN SI, NANDUN THELLAMUREGE, YALI WANG, HUI LI
     UNIVERSITY OF ZURICH: ROBERTO PEVERATI, KIM BALDRIDGE
     N. COPERNICUS UNIVERSITY AND JACKSON STATE UNIVERSITY:
          MARIA BARYSZ
     UNIVERSITY OF COPENHAGEN: Jimmy Kromann, CASPER STEINMANN
     TOKYO INSTITUTE OF TECHNOLOGY: HIROYA NAKATA
     NAGOYA UNIVERSITY: YOSHIO NISHIMOTO, STEPHAN IRLE
     MOSCOW STATE UNIVERSITY: VLADIMIR MIRONOV

 EXECUTION OF GAMESS BEGUN Thu Jan 17 17:51:32 2019

            ECHO OF THE FIRST FEW INPUT CARDS -
 INPUT CARD> $CONTRL MULT=1 SCFTYP=RHF CCTYP=CCSD(T) $END                                   
 INPUT CARD> $BASIS GBASIS=N31 NGAUSS=6 NDFUNC=1 NPFUNC=1 $END                              
 INPUT CARD> $CCINP NCORE=0 $END                                                            
 INPUT CARD> $GUESS GUESS=HUCKEL $END                                                       
 INPUT CARD> $DATA                                                                          
 INPUT CARD>LiH...HF...6-31G* basis                                                         
 INPUT CARD>Cnv   2                                                                         
 INPUT CARD>                                                                                
 INPUT CARD>Li    3.0    0.0      0.0     0.0                                               
 INPUT CARD>H     1.0    0.0      0.0     4.0                                               
 INPUT CARD> $END                                                                           
    1000000 WORDS OF MEMORY AVAILABLE

     BASIS OPTIONS
     -------------
     GBASIS=N31          IGAUSS=       6      POLAR=POPN31  
     NDFUNC=       1     NFFUNC=       0     DIFFSP=       F
     NPFUNC=       1      DIFFS=       F     BASNAM=        


     RUN TITLE
     ---------
 LiH...HF...6-31G* basis                                                         

 THE POINT GROUP OF THE MOLECULE IS CNV     
 THE ORDER OF THE PRINCIPAL AXIS IS     2

 ATOM      ATOMIC                      COORDINATES (BOHR)
           CHARGE         X                   Y                   Z
 LI          3.0     0.0000000000        0.0000000000        0.0000000000
 H           1.0     0.0000000000        0.0000000000        7.5589039509

          INTERNUCLEAR DISTANCES (ANGS.)
          ------------------------------

                1 LI         2 H     

   1 LI      0.0000000    4.0000000  
   2 H       4.0000000    0.0000000  

  * ... LESS THAN  3.000


     ATOMIC BASIS SET
     ----------------
 THE CONTRACTED PRIMITIVE FUNCTIONS HAVE BEEN UNNORMALIZED
 THE CONTRACTED BASIS FUNCTIONS ARE NOW NORMALIZED TO UNITY

  SHELL TYPE  PRIMITIVE        EXPONENT          CONTRACTION COEFFICIENT(S)

 LI        

      1   S       1           642.4189150    0.002142607810
      1   S       2            96.7985153    0.016208871501
      1   S       3            22.0911212    0.077315572504
      1   S       4             6.2010702    0.245786052013
      1   S       5             1.9351177    0.470189004025
      1   S       6             0.6367358    0.345470845019

      2   L       7             2.3249184   -0.035091745735    0.008941508043
      2   L       8             0.6324304   -0.191232843103    0.141009464046
      2   L       9             0.0790534    1.083987794916    0.945363695309

      3   L      10             0.0359620    1.000000000000    1.000000000000

      4   D      11             0.2000000    1.000000000000

 H         

      5   S      12            18.7311370    0.033494604338
      5   S      13             2.8253944    0.234726953484
      5   S      14             0.6401217    0.813757326146

      6   S      15             0.1612778    1.000000000000

      7   P      16             1.1000000    1.000000000000

 TOTAL NUMBER OF BASIS SET SHELLS             =    7
 NUMBER OF CARTESIAN GAUSSIAN BASIS FUNCTIONS =   20
 NUMBER OF ELECTRONS                          =    4
 CHARGE OF MOLECULE                           =    0
 SPIN MULTIPLICITY                            =    1
 NUMBER OF OCCUPIED ORBITALS (ALPHA)          =    2
 NUMBER OF OCCUPIED ORBITALS (BETA )          =    2
 TOTAL NUMBER OF ATOMS                        =    2
 THE NUCLEAR REPULSION ENERGY IS        0.3968829369

 THIS MOLECULE IS RECOGNIZED AS BEING LINEAR,
 ORBITAL LZ DEGENERACY TOLERANCE ETOLLZ= 1.00E-06

     $CONTRL OPTIONS
     ---------------
 SCFTYP=RHF          RUNTYP=ENERGY       EXETYP=RUN     
 MPLEVL=       0     CITYP =NONE         CCTYP =CCSD(T)      VBTYP =NONE    
 DFTTYP=NONE         TDDFT =NONE    
 MULT  =       1     ICHARG=       0     NZVAR =       0     COORD =UNIQUE  
 PP    =NONE         RELWFN=NONE         LOCAL =NONE         NUMGRD=       F
 ISPHER=      -1     NOSYM =       0     MAXIT =      30     UNITS =ANGS    
 PLTORB=       F     MOLPLT=       F     AIMPAC=       F     FRIEND=        
 NPRINT=       7     IREST =       0     GEOM  =INPUT   
 NORMF =       0     NORMP =       0     ITOL  =      20     ICUT  =       9
 INTTYP=BEST         GRDTYP=BEST         QMTTOL= 1.0E-06

     $SYSTEM OPTIONS
     ---------------
  REPLICATED MEMORY=     1000000 WORDS (ON EVERY NODE).
 DISTRIBUTED MEMDDI=           0 MILLION WORDS IN AGGREGATE,
 MEMDDI DISTRIBUTED OVER   1 PROCESSORS IS           0 WORDS/PROCESSOR.
 TOTAL MEMORY REQUESTED ON EACH PROCESSOR=     1000000 WORDS.
 TIMLIM=      525600.00 MINUTES, OR     365.0 DAYS.
 PARALL= F  BALTYP=  DLB     KDIAG=    0  COREFL= F
 MXSEQ2=     300 MXSEQ3=     150  mem10=         0

          ----------------
          PROPERTIES INPUT
          ----------------

     MOMENTS            FIELD           POTENTIAL          DENSITY
 IEMOM =       1   IEFLD =       0   IEPOT =       0   IEDEN =       0
 WHERE =COMASS     WHERE =NUCLEI     WHERE =NUCLEI     WHERE =NUCLEI  
 OUTPUT=BOTH       OUTPUT=BOTH       OUTPUT=BOTH       OUTPUT=BOTH    
 IEMINT=       0   IEFINT=       0                     IEDINT=       0
                                                       MORB  =       0
          EXTRAPOLATION IN EFFECT
          SOSCF IN EFFECT
 ORBITAL PRINTING OPTION: NPREO=     1    20     2     1

     -------------------------------
     INTEGRAL TRANSFORMATION OPTIONS
     -------------------------------
     NWORD  =            0
     CUTOFF = 1.0E-09     MPTRAN =       0
     DIRTRF =       F     AOINTS =DUP     

          ----------------------
          INTEGRAL INPUT OPTIONS
          ----------------------
 NOPK  =       1 NORDER=       0 SCHWRZ=       F

     ------------------------------------------
     THE POINT GROUP IS CNV, NAXIS= 2, ORDER= 4
     ------------------------------------------

     DIMENSIONS OF THE SYMMETRY SUBSPACES ARE
 A1  =   11     A2  =    1     B1  =    4     B2  =    4

 ..... DONE SETTING UP THE RUN .....
 STEP CPU TIME =     0.00 TOTAL CPU TIME =        0.0 (    0.0 MIN)
 TOTAL WALL CLOCK TIME=        0.0 SECONDS, CPU UTILIZATION IS   0.00%

          ********************
          1 ELECTRON INTEGRALS
          ********************
 ...... END OF ONE-ELECTRON INTEGRALS ......
 STEP CPU TIME =     0.00 TOTAL CPU TIME =        0.0 (    0.0 MIN)
 TOTAL WALL CLOCK TIME=        0.0 SECONDS, CPU UTILIZATION IS   0.00%

          -------------
          GUESS OPTIONS
          -------------
          GUESS =HUCKEL            NORB  =       0          NORDER=       0
          MIX   =       F          PRTMO =       F          PUNMO =       F
          TOLZ  = 1.0E-08          TOLE  = 1.0E-05
          SYMDEN=       F          PURIFY=       F

 INITIAL GUESS ORBITALS GENERATED BY HUCKEL   ROUTINE.
 HUCKEL GUESS REQUIRES      4469 WORDS.

 SYMMETRIES FOR INITIAL GUESS ORBITALS FOLLOW.   BOTH SET(S).
     2 ORBITALS ARE OCCUPIED (    1 CORE ORBITALS).
     2=A1       3=A1       4=A1       5=A1       6=A1       7=A1       8=A1  
     9=A1      10=A1      11=A1      12=A2  
 ...... END OF INITIAL ORBITAL SELECTION ......
 STEP CPU TIME =     0.00 TOTAL CPU TIME =        0.0 (    0.0 MIN)
 TOTAL WALL CLOCK TIME=        0.0 SECONDS, CPU UTILIZATION IS   0.00%

                    ----------------------
                    AO INTEGRAL TECHNOLOGY
                    ----------------------
     S,P,L SHELL ROTATED AXIS INTEGRALS, REPROGRAMMED BY
        KAZUYA ISHIMURA (IMS) AND JOSE SIERRA (SYNSTAR).
     S,P,D,L SHELL ROTATED AXIS INTEGRALS PROGRAMMED BY
        KAZUYA ISHIMURA (INSTITUTE FOR MOLECULAR SCIENCE).
     S,P,D,F,G SHELL TO TOTAL QUARTET ANGULAR MOMENTUM SUM 5,
        ERIC PROGRAM BY GRAHAM FLETCHER (ELORET AND NASA ADVANCED
        SUPERCOMPUTING DIVISION, AMES RESEARCH CENTER).
     S,P,D,F,G,L SHELL GENERAL RYS QUADRATURE PROGRAMMED BY
        MICHEL DUPUIS (PACIFIC NORTHWEST NATIONAL LABORATORY).

          --------------------
          2 ELECTRON INTEGRALS
          --------------------

 THE -PK- OPTION IS OFF, THE INTEGRALS ARE NOT IN SUPERMATRIX FORM.
 STORING   15000 INTEGRALS/RECORD ON DISK, USING 12 BYTES/INTEGRAL.
 TWO ELECTRON INTEGRAL EVALUATION REQUIRES   90424 WORDS OF MEMORY.
 II,JST,KST,LST =  1  1  1  1 NREC =         1 INTLOC =    1
 II,JST,KST,LST =  2  1  1  1 NREC =         1 INTLOC =    2
 II,JST,KST,LST =  3  1  1  1 NREC =         1 INTLOC =   34
 II,JST,KST,LST =  4  1  1  1 NREC =         1 INTLOC =  214
 II,JST,KST,LST =  5  1  1  1 NREC =         1 INTLOC = 1189
 II,JST,KST,LST =  6  1  1  1 NREC =         1 INTLOC = 1806
 II,JST,KST,LST =  7  1  1  1 NREC =         1 INTLOC = 2642
 TOTAL NUMBER OF NONZERO TWO-ELECTRON INTEGRALS =                5277
          1 INTEGRAL RECORDS WERE STORED ON DISK FILE  8.
  ...... END OF TWO-ELECTRON INTEGRALS .....
 STEP CPU TIME =     0.02 TOTAL CPU TIME =        0.0 (    0.0 MIN)
 TOTAL WALL CLOCK TIME=        0.0 SECONDS, CPU UTILIZATION IS  66.67%

          --------------------------
                 RHF SCF CALCULATION
          --------------------------

     NUCLEAR ENERGY =         0.3968829369
     MAXIT =   30     NPUNCH=    2
     EXTRAP=T  DAMP=F  SHIFT=F  RSTRCT=F  DIIS=F  DEM=F  SOSCF=T
     DENSITY MATRIX CONV=  1.00E-06
     SOSCF WILL OPTIMIZE      36 ORBITAL ROTATIONS, SOGTOL=   0.250
     MEMORY REQUIRED FOR RHF ITERS=     33224 WORDS.

 ITER EX DEM     TOTAL ENERGY        E CHANGE  DENSITY CHANGE     ORB. GRAD
   1  0  0       -7.5237021842    -7.5237021842   1.150989373   0.000000000
          ---------------START SECOND ORDER SCF---------------
 SOSCF IS SCALING ROTATION ANGLE MATRIX, SQCDF=    0.164260
   2  1  0       -7.4719055431     0.0517966412   0.485216620   0.083340269
 SOSCF IS SCALING ROTATION ANGLE MATRIX, SQCDF=    1.408853
   3  2  0       -7.7134763913    -0.2415708483   1.306338454   0.104540031
 SOSCF IS SCALING ROTATION ANGLE MATRIX, SQCDF=    0.111425
   4  3  0       -7.7696839775    -0.0562075861   0.448778118   0.068893471
   5  4  0       -7.8243741496    -0.0546901722   0.192702757   0.057216558
   6  5  0       -7.8478274994    -0.0234533497   0.187257802   0.021732523
   7  6  0       -7.8572735432    -0.0094460438   0.074283796   0.005497452
   8  7  0       -7.8581027476    -0.0008292044   0.010146353   0.003842263
   9  8  0       -7.8581692857    -0.0000665382   0.003513229   0.000456840
  10  9  0       -7.8581744046    -0.0000051189   0.000732283   0.000197448
  11 10  0       -7.8581745071    -0.0000001025   0.000086238   0.000032866
  12 11  0       -7.8581745095    -0.0000000023   0.000003177   0.000001535
  13 12  0       -7.8581745095    -0.0000000000   0.000000485   0.000000173
  14 13  0       -7.8581745095    -0.0000000000   0.000000029   0.000000020

 RHF HAS CONVERGED, NOW COMPUTING EXACT TOTAL FOCK MATRIX
 FOR USE DURING THE COUPLED CLUSTER CALCULATION THAT FOLLOWS.

          -----------------
          DENSITY CONVERGED
          -----------------
     TIME TO FORM FOCK OPERATORS=       0.0 SECONDS (       0.0 SEC/ITER)
     TIME TO SOLVE SCF EQUATIONS=       0.0 SECONDS (       0.0 SEC/ITER)

 FINAL RHF ENERGY IS       -7.8581745095 AFTER  14 ITERATIONS

 LZ VALUE ANALYSIS FOR THE MOS
 ----------------------------------------
 MO     1 (    1) HAS LZ(WEIGHT)= 0.00(100.0%) 
 MO     2 (    2) HAS LZ(WEIGHT)= 0.00(100.0%) 
 MO     3 (    3) HAS LZ(WEIGHT)= 0.00(100.0%) 
 MO     4 (    4) HAS LZ(WEIGHT)=-1.00( 50.0%)  1.00( 50.0%) 
 MO     5 (    4) HAS LZ(WEIGHT)=-1.00( 50.0%)  1.00( 50.0%) 
 MO     6 (    5) HAS LZ(WEIGHT)= 0.00(100.0%) 
 MO     7 (    6) HAS LZ(WEIGHT)= 0.00(100.0%) 
 MO     8 (    7) HAS LZ(WEIGHT)=-1.00( 50.0%)  1.00( 50.0%) 
 MO     9 (    7) HAS LZ(WEIGHT)=-1.00( 50.0%)  1.00( 50.0%) 
 MO    10 (    8) HAS LZ(WEIGHT)= 0.00(100.0%) 
 MO    11 (    9) HAS LZ(WEIGHT)=-2.00( 50.0%)  2.00( 50.0%) 
 MO    12 (    9) HAS LZ(WEIGHT)=-2.00( 50.0%)  2.00( 50.0%) 
 MO    13 (   10) HAS LZ(WEIGHT)=-1.00( 50.0%)  1.00( 50.0%) 
 MO    14 (   10) HAS LZ(WEIGHT)=-1.00( 50.0%)  1.00( 50.0%) 
 MO    15 (   11) HAS LZ(WEIGHT)= 0.00(100.0%) 
 MO    16 (   12) HAS LZ(WEIGHT)= 0.00(100.0%) 
 MO    17 (   13) HAS LZ(WEIGHT)= 0.00(100.0%) 
 MO    18 (   14) HAS LZ(WEIGHT)=-1.00( 50.0%)  1.00( 50.0%) 
 MO    19 (   14) HAS LZ(WEIGHT)=-1.00( 50.0%)  1.00( 50.0%) 
 MO    20 (   15) HAS LZ(WEIGHT)= 0.00(100.0%) 

          ------------
          EIGENVECTORS
          ------------

                      1          2          3          4          5
                   -2.5792    -0.1957    -0.0424     0.0259     0.0259
                     A1         A1         A1         B1         B2  
    1  LI 1  S    0.998760  -0.089601  -0.161114  -0.000000  -0.000000
    2  LI 1  S   -0.012315  -0.061991   0.054845  -0.000000  -0.000000
    3  LI 1  X    0.000000  -0.000000  -0.000000   0.224839  -0.000000
    4  LI 1  Y    0.000000  -0.000000  -0.000000  -0.000000   0.224839
    5  LI 1  Z   -0.003107   0.006652  -0.111750  -0.000000  -0.000000
    6  LI 1  S    0.001974   0.463865   0.732042  -0.000000  -0.000000
    7  LI 1  X    0.000000  -0.000000  -0.000000   0.810176  -0.000000
    8  LI 1  Y    0.000000  -0.000000  -0.000000  -0.000000   0.810176
    9  LI 1  Z    0.002127   0.213678  -0.339453  -0.000000  -0.000000
   10  LI 1 XX    0.008811   0.024602   0.038115  -0.000000  -0.000000
   11  LI 1 YY    0.008811   0.024602   0.038115  -0.000000  -0.000000
   12  LI 1 ZZ    0.008650   0.044392   0.035945  -0.000000  -0.000000
   13  LI 1 XY    0.000000  -0.000000  -0.000000  -0.000000  -0.000000
   14  LI 1 XZ    0.000000  -0.000000  -0.000000  -0.028869  -0.000000
   15  LI 1 YZ    0.000000  -0.000000  -0.000000  -0.000000  -0.028869
   16  H  2  S    0.000050   0.241255  -0.098658  -0.000000  -0.000000
   17  H  2  S   -0.000196   0.582889  -0.241958  -0.000000  -0.000000
   18  H  2  X    0.000000  -0.000000  -0.000000   0.001227  -0.000000
   19  H  2  Y    0.000000  -0.000000  -0.000000  -0.000000   0.001227
   20  H  2  Z   -0.000015  -0.001356  -0.000954  -0.000000  -0.000000

                      6          7          8          9         10
                    0.0680     0.1512     0.1694     0.1694     0.2199
                     A1         A1         B1         B2         A1  
    1  LI 1  S   -0.046227   0.058404  -0.000000  -0.000000   0.069167
    2  LI 1  S    0.599301   2.240226  -0.000000  -0.000000   2.339998
    3  LI 1  X   -0.000000  -0.000000   1.657222  -0.000000  -0.000000
    4  LI 1  Y   -0.000000  -0.000000  -0.000000   1.657222  -0.000000
    5  LI 1  Z    0.244462  -1.213987  -0.000000  -0.000000   1.177259
    6  LI 1  S   -0.174224  -1.756225  -0.000000  -0.000000  -1.877599
    7  LI 1  X   -0.000000  -0.000000  -1.464662  -0.000000  -0.000000
    8  LI 1  Y   -0.000000  -0.000000  -0.000000  -1.464662  -0.000000
    9  LI 1  Z    0.681671   0.991700  -0.000000  -0.000000  -1.251793
   10  LI 1 XX   -0.005879  -0.227828  -0.000000  -0.000000  -0.203078
   11  LI 1 YY   -0.005879  -0.227828  -0.000000  -0.000000  -0.203078
   12  LI 1 ZZ   -0.097024  -0.170354  -0.000000  -0.000000  -0.224149
   13  LI 1 XY   -0.000000  -0.000000  -0.000000  -0.000000  -0.000000
   14  LI 1 XZ   -0.000000  -0.000000  -0.044824  -0.000000  -0.000000
   15  LI 1 YZ   -0.000000  -0.000000  -0.000000  -0.044824  -0.000000
   16  H  2  S   -0.115395   0.020509  -0.000000  -0.000000   0.040825
   17  H  2  S   -0.474919  -0.003866  -0.000000  -0.000000   0.387404
   18  H  2  X   -0.000000  -0.000000  -0.000951  -0.000000  -0.000000
   19  H  2  Y   -0.000000  -0.000000  -0.000000  -0.000951  -0.000000
   20  H  2  Z   -0.003667   0.001916  -0.000000  -0.000000   0.000123

                     11         12         13         14         15
                    0.5034     0.5034     0.5101     0.5101     0.5143
                     A1         A2         B1         B2         A1  
    1  LI 1  S    0.000000   0.000000  -0.000000  -0.000000  -0.002743
    2  LI 1  S    0.000000   0.000000  -0.000000  -0.000000   0.024701
    3  LI 1  X    0.000000   0.000000   0.080899  -0.000000   0.000000
    4  LI 1  Y    0.000000   0.000000  -0.000000   0.080899   0.000000
    5  LI 1  Z    0.000000   0.000000  -0.000000  -0.000000   0.070628
    6  LI 1  S    0.000000   0.000000  -0.000000  -0.000000   0.016646
    7  LI 1  X    0.000000   0.000000  -0.042337  -0.000000   0.000000
    8  LI 1  Y    0.000000   0.000000  -0.000000  -0.042337   0.000000
    9  LI 1  Z    0.000000   0.000000  -0.000000  -0.000000  -0.008329
   10  LI 1 XX    0.866025   0.000000  -0.000000  -0.000000  -0.510420
   11  LI 1 YY   -0.866025   0.000000  -0.000000  -0.000000  -0.510420
   12  LI 1 ZZ    0.000000   0.000000  -0.000000  -0.000000   0.982953
   13  LI 1 XY    0.000000   1.000000  -0.000000  -0.000000   0.000000
   14  LI 1 XZ    0.000000   0.000000   0.998577  -0.000000   0.000000
   15  LI 1 YZ    0.000000   0.000000  -0.000000   0.998577   0.000000
   16  H  2  S    0.000000   0.000000  -0.000000  -0.000000  -0.067735
   17  H  2  S    0.000000   0.000000  -0.000000  -0.000000  -0.012129
   18  H  2  X    0.000000   0.000000   0.000570  -0.000000   0.000000
   19  H  2  Y    0.000000   0.000000  -0.000000   0.000570   0.000000
   20  H  2  Z    0.000000   0.000000  -0.000000  -0.000000  -0.003650

                     16         17         18         19         20
                    1.1563     1.2007     2.4648     2.4648     2.4698
                     A1         A1         B1         B2         A1  
    1  LI 1  S    0.108852   0.047291   0.000000  -0.000000  -0.002485
    2  LI 1  S    9.168571   2.408210   0.000000  -0.000000   0.155570
    3  LI 1  X    0.000000  -0.000000   0.016630  -0.000000   0.000000
    4  LI 1  Y    0.000000  -0.000000   0.000000   0.016630   0.000000
    5  LI 1  Z    0.001410   0.119955   0.000000  -0.000000  -0.018575
    6  LI 1  S   -2.820616  -0.953830   0.000000  -0.000000   0.000392
    7  LI 1  X    0.000000  -0.000000  -0.024617  -0.000000   0.000000
    8  LI 1  Y    0.000000  -0.000000   0.000000  -0.024617   0.000000
    9  LI 1  Z    0.014972  -0.262228   0.000000  -0.000000   0.054547
   10  LI 1 XX   -3.061297  -0.698240   0.000000  -0.000000  -0.070331
   11  LI 1 YY   -3.061297  -0.698240   0.000000  -0.000000  -0.070331
   12  LI 1 ZZ   -3.047832  -0.806436   0.000000  -0.000000  -0.061358
   13  LI 1 XY    0.000000  -0.000000   0.000000  -0.000000   0.000000
   14  LI 1 XZ    0.000000  -0.000000  -0.000736  -0.000000   0.000000
   15  LI 1 YZ    0.000000  -0.000000   0.000000  -0.000736   0.000000
   16  H  2  S    0.290134  -1.283055   0.000000  -0.000000   0.015804
   17  H  2  S   -0.189833   1.156347   0.000000  -0.000000  -0.030626
   18  H  2  X    0.000000  -0.000000   1.000090  -0.000000   0.000000
   19  H  2  Y    0.000000  -0.000000   0.000000   1.000090   0.000000
   20  H  2  Z   -0.015443   0.001813   0.000000  -0.000000   1.000766
 ...... END OF RHF CALCULATION ......
 STEP CPU TIME =     0.01 TOTAL CPU TIME =        0.0 (    0.0 MIN)
 TOTAL WALL CLOCK TIME=        0.1 SECONDS, CPU UTILIZATION IS  33.33%

     ----------------------------------------------------------------
     PROPERTY VALUES FOR THE RHF   SELF-CONSISTENT FIELD WAVEFUNCTION
     ----------------------------------------------------------------

          ---------------------------------------
          MULLIKEN AND LOWDIN POPULATION ANALYSES
          ---------------------------------------

               ----- POPULATIONS IN EACH AO -----
                             MULLIKEN      LOWDIN
              1  LI 1  S      1.99797     1.97941
              2  LI 1  S     -0.05866     0.09849
              3  LI 1  X      0.00000     0.00000
              4  LI 1  Y      0.00000     0.00000
              5  LI 1  Z      0.00339     0.02840
              6  LI 1  S      0.49236     0.31921
              7  LI 1  X      0.00000     0.00000
              8  LI 1  Y      0.00000     0.00000
              9  LI 1  Z      0.17822     0.16024
             10  LI 1 XX      0.01529     0.02375
             11  LI 1 YY      0.01529     0.02375
             12  LI 1 ZZ      0.02890     0.03567
             13  LI 1 XY      0.00000     0.00000
             14  LI 1 XZ      0.00000     0.00000
             15  LI 1 YZ      0.00000     0.00000
             16  H  2  S      0.32077     0.38761
             17  H  2  S      1.00642     0.94336
             18  H  2  X      0.00000     0.00000
             19  H  2  Y      0.00000     0.00000
             20  H  2  Z      0.00004     0.00010

          ----- MULLIKEN ATOMIC OVERLAP POPULATIONS -----
          (OFF-DIAGONAL ELEMENTS NEED TO BE MULTIPLIED BY 2)

             1           2

    1    2.5117598
    2    0.1610092   1.1662218

          TOTAL MULLIKEN AND LOWDIN ATOMIC POPULATIONS
       ATOM         MULL.POP.    CHARGE          LOW.POP.     CHARGE
    1 LI            2.672769    0.327231         2.668931    0.331069
    2 H             1.327231   -0.327231         1.331069   -0.331069

          -------------------------------
          BOND ORDER AND VALENCE ANALYSIS     BOND ORDER THRESHOLD=0.050
          -------------------------------

                   BOND                       BOND                       BOND
  ATOM PAIR DIST  ORDER      ATOM PAIR DIST  ORDER      ATOM PAIR DIST  ORDER
    1   2  4.000  0.893

                       TOTAL       BONDED        FREE
      ATOM            VALENCE     VALENCE     VALENCE
    1 LI                0.893       0.893      -0.000
    2 H                 0.893       0.893      -0.000

          ---------------------
          ELECTROSTATIC MOMENTS
          ---------------------

 POINT   1           X           Y           Z (BOHR)    CHARGE
                 0.000000    0.000000    0.949429        0.00 (A.U.)
         DX          DY          DZ         /D/  (DEBYE)
     0.000000    0.000000  -11.188455   11.188455
 ...... END OF PROPERTY EVALUATION ......
 STEP CPU TIME =     0.01 TOTAL CPU TIME =        0.0 (    0.0 MIN)
 TOTAL WALL CLOCK TIME=        0.1 SECONDS, CPU UTILIZATION IS  44.44%

     ---------------------------
     COUPLED CLUSTER CALCULATION
     ---------------------------
 CCTYP                        =CCSD(T) 
 TOTAL NUMBER OF MOS          =    20
 NUMBER OF OCCUPIED MOS       =     2
 NUMBER OF FROZEN CORE MOS    =     0
 NUMBER OF FROZEN VIRTUAL MOS =     0
 MAXIMUM CC ITERATIONS        =    30
 MAXIMUM DIIS ITERATIONS      =     5
 CONVERGENCE CRITERION FOR CC =     7
 AMPLITUDE ACCURACY THRESHOLD = 0.0E+00

     --------------------------------------------
     PARTIAL TWO ELECTRON INTEGRAL TRANSFORMATION
     --------------------------------------------

 NUMBER OF CORE MOLECULAR ORBITALS     =    0
 NUMBER OF OCCUPIED MOLECULAR ORBITALS =   20
 TOTAL NUMBER OF MOLECULAR ORBITALS    =   20
 TOTAL NUMBER OF ATOMIC ORBITALS       =   20
 THRESHOLD FOR KEEPING TRANSFORMED 2E- INTEGRALS = 1.000E-09
 AO INTEGRALS WILL BE READ IN FROM DISK...

 PLAN A: REQUIREMENTS FOR FULLY IN-MEMORY TRANSFORMATION:
 # OF WORDS AVAILABLE =              1000000
 # OF WORDS NEEDED    =               146042

 CHOOSING IN MEMORY PARTIAL TRANSFORMATION...
 TOTAL NUMBER OF TRANSFORMED 2E- INTEGRALS KEPT =         5962
 ... END OF INTEGRAL TRANSFORMATION ...
 STEP CPU TIME =     0.00 TOTAL CPU TIME =        0.0 (    0.0 MIN)
 TOTAL WALL CLOCK TIME=        0.1 SECONDS, CPU UTILIZATION IS  40.00%

   -----------------------
   COUPLED-CLUSTER PROGRAM
   -----------------------

   -------------------------------------------------------
   P.PIECUCH, S.A.KUCHARSKI, M.WLOCH, K.KOWALSKI, M.MUSIAL
   -------------------------------------------------------

 *****************************************************************
 THE FOLLOWING PAPERS SHOULD BE CITED WHEN USING COUPLED-CLUSTER
 OPTIONS:

 CCTYP = LCCD, CCD, CCSD, CCSD(T)
 P. PIECUCH, S.A. KUCHARSKI, K. KOWALSKI, AND M. MUSIAL,
 COMP. PHYS. COMMUN. 149, 71-96 (2002).

 CCTYP = R-CC, CR-CC, CCSD(TQ), CR-CC(Q)
 P. PIECUCH, S.A. KUCHARSKI, K. KOWALSKI, AND M. MUSIAL,
 COMP. PHYS. COMMUN. 149, 71-96 (2002);
 K. KOWALSKI AND P. PIECUCH, J. CHEM. PHYS. 113, 18-35 (2000);
 K. KOWALSKI AND P. PIECUCH, J. CHEM. PHYS. 113, 5644-5652 (2000).

 CCTYP = EOM-CCSD, CR-EOM
 P. PIECUCH, S.A. KUCHARSKI, K. KOWALSKI, AND M. MUSIAL,
 COMP. PHYS. COMMUN. 149, 71-96 (2002);
 K. KOWALSKI AND P. PIECUCH, J. CHEM. PHYS. 120, 1715-1738 (2004);
 M. WLOCH, J.R. GOUR, K. KOWALSKI, AND P. PIECUCH,
 J. CHEM. PHYS. 122, 214107-1 - 214107-15 (2005).

 CCTYP = CR-CCL
 P. PIECUCH, S.A. KUCHARSKI, K. KOWALSKI, AND M. MUSIAL,
 COMP. PHYS. COMMUN. 149, 71-96 (2002);
 P. PIECUCH AND M. WLOCH, J. CHEM. PHYS. 123,
 224105-1 - 224105-10 (2005).

 CCTYP = CR-EOML
 P. PIECUCH, S.A. KUCHARSKI, K. KOWALSKI, AND M. MUSIAL,
 COMP. PHYS. COMMUN. 149, 71-96 (2002);
 P. PIECUCH, J. R. GOUR, AND M. WLOCH,
 INT. J. QUANTUM CHEM. 109, 3268-3304 (2009);
 K. KOWALSKI AND P. PIECUCH,
 J. CHEM. PHYS. 120, 1715-1738 (2004).

 IN ADDITION, THE USE OF CCPRP=.TRUE. IN $CCINP AND/OR THE USE
 OF CCPRPE=.TRUE. IN $EOMINP SHOULD REFERENCE

 M. WLOCH, J.R. GOUR, K. KOWALSKI, AND P. PIECUCH,
 J. CHEM. PHYS. 122, 214107-1 - 214107-15 (2005).
 *****************************************************************


 THE FOLLOWING CALCULATIONS WILL BE PERFORMED:
                                                     CCSD   
                                                     CCSD[T]
                                                     CCSD(T)

 THE FOLLOWING ENERGY WILL BE CONSIDERED THE HIGHEST LEVEL:    CCSD(T)
 THE AVAILABLE REPLICATED MEMORY IS     1000000 WORDS.
 CONVERGENCE THRESHOLD:   1.0E-07
 MAXIMUM NUMBER OF ITERATIONS:   30

 MEMORY TO BE USED IN CC INTEGRAL SORTING IS      140808 WORDS.
 THE MINIMUM MEMORY TO ACCOMPLISH SORTING IS       47496 WORDS.
         5962 NON-ZERO TRANSFORMED 2E- INTEGRALS WERE SORTED INTO FILE 72:
            6 [IJ|KL] TYPE,          48 [AJ|KL] TYPE,
          174 [AB|IJ] TYPE,         214 [IA|BJ] TYPE,
         1672 [AB|CI] TYPE,        3848 [AB|CD] TYPE.
 TRANSFORMED INTEGRAL FILE  9 WAS READ    3 TIMES.
 ....... DONE WITH CC INTEGRAL PREPARATION .......
 STEP CPU TIME =     0.00 TOTAL CPU TIME =        0.0 (    0.0 MIN)
 TOTAL WALL CLOCK TIME=        0.1 SECONDS, CPU UTILIZATION IS  40.00%

 MEMORY REQUIRED FOR THE CCSD ITERATIONS IS       23276 WORDS.
 ITER:  1   CCSD    CORR. ENERGY:  -0.0437078994   CONV.: -5.4701E-02
 ITER:  2   CCSD    CORR. ENERGY:  -0.0490108629   CONV.: -3.3405E-02
 ITER:  3   CCSD    CORR. ENERGY:  -0.0508103042   CONV.:  1.2514E-02
 ITER:  4   CCSD    CORR. ENERGY:  -0.0499656727   CONV.:  1.7344E-01
 ITER:  5   CCSD    CORR. ENERGY:  -0.0499765583   CONV.:  1.7328E-01
 ITER:  6   CCSD    CORR. ENERGY:  -0.0502416416   CONV.:  1.7273E-01
 ITER:  7   CCSD    CORR. ENERGY:  -0.0542021008   CONV.:  1.5019E-01
 ITER:  8   CCSD    CORR. ENERGY:  -0.0575963052   CONV.:  1.3644E-01
 ITER:  9   CCSD    CORR. ENERGY:  -0.0909116272   CONV.: -2.1788E-01
 ITER: 10   CCSD    CORR. ENERGY:  -0.0913532970   CONV.: -2.2493E-01
 ITER: 11   CCSD    CORR. ENERGY:  -0.0688663601   CONV.:  6.6813E-02
 ITER: 12   CCSD    CORR. ENERGY:  -0.0732932855   CONV.:  2.0505E-02
 ITER: 13   CCSD    CORR. ENERGY:  -0.0752600399   CONV.: -4.9984E-03
 ITER: 14   CCSD    CORR. ENERGY:  -0.0755138104   CONV.: -3.0365E-03
 ITER: 15   CCSD    CORR. ENERGY:  -0.0752910231   CONV.: -7.0999E-04
 ITER: 16   CCSD    CORR. ENERGY:  -0.0752485940   CONV.:  3.3782E-04
 ITER: 17   CCSD    CORR. ENERGY:  -0.0752363119   CONV.: -8.5933E-05
 ITER: 18   CCSD    CORR. ENERGY:  -0.0752240697   CONV.: -4.2310E-05
 ITER: 19   CCSD    CORR. ENERGY:  -0.0752248070   CONV.:  1.1634E-05
 ITER: 20   CCSD    CORR. ENERGY:  -0.0752259425   CONV.: -1.4095E-05
 ITER: 21   CCSD    CORR. ENERGY:  -0.0752254580   CONV.:  3.9151E-06
 ITER: 22   CCSD    CORR. ENERGY:  -0.0752256445   CONV.:  6.6409E-07
 ITER: 23   CCSD    CORR. ENERGY:  -0.0752257122   CONV.: -3.7336E-07
 ITER: 24   CCSD    CORR. ENERGY:  -0.0752257284   CONV.:  1.8856E-07
 ITER: 25   CCSD    CORR. ENERGY:  -0.0752257507   CONV.: -1.6402E-07
 ITER: 26   CCSD    CORR. ENERGY:  -0.0752257572   CONV.: -6.3596E-08
 ITER: 27   CCSD    CORR. ENERGY:  -0.0752257576   CONV.: -6.3596E-08

     THE    CCSD     ITERATIONS HAVE CONVERGED

    MBPT(2) CORRELATION ENERGY:  -0.0345397525
    CCSD    CORRELATION ENERGY:  -0.0752257576

 T1 DIAGNOSTIC        =     0.22589147
 NORM OF THE T1 VECTOR=     0.45178294
 NORM OF THE T2 VECTOR=     0.86983410

 THE FIVE LARGEST T1 AMPLITUDES ARE:
 T1 AMPLITUDE IS  0.439755 FOR I=   2 -> A=   3
 T1 AMPLITUDE IS  0.068918 FOR I=   2 -> A=  10
 T1 AMPLITUDE IS  0.052995 FOR I=   2 -> A=   6
 T1 AMPLITUDE IS -0.045179 FOR I=   2 -> A=  17
 T1 AMPLITUDE IS  0.030932 FOR I=   2 -> A=   7

 THE FIVE LARGEST SPIN-UNIQUE T2 AMPLITUDES ARE:
 T2 AMPLITUDE IS -0.660256 FOR I,J=   2   2 -> A,B=   3   3
 T2 AMPLITUDE IS -0.362427 FOR I,J=   2   2 -> A,B=   3   6
 T2 AMPLITUDE IS -0.208667 FOR I,J=   2   2 -> A,B=   6   6
 T2 AMPLITUDE IS -0.060129 FOR I,J=   2   2 -> A,B=   3  17
 T2 AMPLITUDE IS -0.035005 FOR I,J=   2   2 -> A,B=   6  17
 PRINTED T2(I-ALPHA,J-BETA -> A-ALPHA,B-BETA) VALUES
 EQUAL   T2(J-ALPHA,I-BETA -> B-ALPHA,A-BETA) AMPLITUDES.

 ....... DONE WITH CC AMPLITUDE ITERATIONS .......
 STEP CPU TIME =     0.08 TOTAL CPU TIME =        0.1 (    0.0 MIN)
 TOTAL WALL CLOCK TIME=        0.2 SECONDS, CPU UTILIZATION IS  70.59%

 MEMORY REQUIRED FOR NONITERATIVE TRIPLES (T3WT2  ) IS        26136 WORDS.

                      SUMMARY OF RESULTS

      REFERENCE ENERGY:       -7.8581745095
        MBPT(2) ENERGY:       -7.8927142620   CORR.E=  -0.0345397525
        CCSD    ENERGY:       -7.9334002671   CORR.E=  -0.0752257576
        CCSD[T] ENERGY:       -7.9336601600   CORR.E=  -0.0754856505
        CCSD(T) ENERGY:       -7.9336368256   CORR.E=  -0.0754623161

 THE FOLLOWING METHOD AND ENERGY WILL BE CONSIDERED THE HIGHEST LEVEL RESULT:
 COUPLED-CLUSTER ENERGY E(   CCSD(T)) =       -7.9336368256

 ..... DONE WITH CC NON-ITERATIVE TRIPLES CORRECTIONS .....
 STEP CPU TIME =     0.00 TOTAL CPU TIME =        0.1 (    0.0 MIN)
 TOTAL WALL CLOCK TIME=        0.2 SECONDS, CPU UTILIZATION IS  70.59%
               580000  WORDS OF DYNAMIC MEMORY USED
 EXECUTION OF GAMESS TERMINATED NORMALLY Thu Jan 17 17:51:32 2019
 DDI: 263640 bytes (0.3 MB / 0 MWords) used by master data server.

 ----------------------------------------
 CPU timing information for all processes
 ========================================
 0: 0.93 + 0.33 = 0.127
 1: 0.01 + 0.02 = 0.03
 ----------------------------------------
 ddikick.x: exited gracefully.
unset echo
----- accounting info -----
Files used on the master node bach.ad64.riken.go.jp were:
-rw-------  1 maho  staff      258  1 17 17:51 .//LiH.631g/4.0/LiH.631g.CCSDT.4.0.gamess.F05
-rw-r--r--  1 maho  staff   180016  1 17 17:51 .//LiH.631g/4.0/LiH.631g.CCSDT.4.0.gamess.F08
-rw-r--r--  1 maho  staff   181704  1 17 17:51 .//LiH.631g/4.0/LiH.631g.CCSDT.4.0.gamess.F09
-rw-r--r--  1 maho  staff  1603280  1 17 17:51 .//LiH.631g/4.0/LiH.631g.CCSDT.4.0.gamess.F10
-rw-r--r--  1 maho  staff   388608  1 17 17:51 .//LiH.631g/4.0/LiH.631g.CCSDT.4.0.gamess.F70
-rw-r--r--  1 maho  staff   106560  1 17 17:51 .//LiH.631g/4.0/LiH.631g.CCSDT.4.0.gamess.F71
-rw-r--r--  1 maho  staff  2286144  1 17 17:51 .//LiH.631g/4.0/LiH.631g.CCSDT.4.0.gamess.F72
-rw-r--r--  1 maho  staff     1152  1 17 17:51 .//LiH.631g/4.0/LiH.631g.CCSDT.4.0.gamess.F73
-rw-r--r--  1 maho  staff    20736  1 17 17:51 .//LiH.631g/4.0/LiH.631g.CCSDT.4.0.gamess.F74
-rw-r--r--  1 maho  staff        0  1 17 17:51 .//LiH.631g/4.0/LiH.631g.CCSDT.4.0.gamess.F75
-rw-r--r--  1 maho  staff        0  1 17 17:51 .//LiH.631g/4.0/LiH.631g.CCSDT.4.0.gamess.F76
-rw-r--r--  1 maho  staff        0  1 17 17:51 .//LiH.631g/4.0/LiH.631g.CCSDT.4.0.gamess.F77
-rw-r--r--  1 maho  staff     7352  1 17 17:51 .//LiH.631g/4.0/LiH.631g.CCSDT.4.0.gamess.dat
-rw-------  1 maho  staff      258  1 17 17:51 .//LiH.631g/4.0/LiH.631g.CCSDT.4.0.gamess.inp
-rw-r--r--  1 maho  staff    36087  1 17 17:51 .//LiH.631g/4.0/LiH.631g.CCSDT.4.0.gamess.log
ls: No match.
ls: No match.
ls: No match.
2019年 1月17日 木曜日 17時51分35秒 JST
0.207u 0.127s 0:03.52 9.0%	0+0k 1+5io 0pf+0w
