----- GAMESS execution script 'rungms' -----
This job is running on host localhost
under operating system Linux at Thu Jan 17 18:35:57 JST 2019
Available scratch disk space (Kbyte units) at beginning of the job is
Filesystem     1K-blocks      Used Available Use% Mounted on
/dev/sda1      895286904 141745668 708040208  17% /
GAMESS temporary binary files will be written to .
GAMESS supplementary output files will be written to .
Copying input file N2.SV/3.5/N2.SV.fullCI.3.5.gamess.inp to your run's scratch directory...
cp N2.SV/3.5/N2.SV.fullCI.3.5.gamess.inp ./N2.SV/3.5/N2.SV.fullCI.3.5.gamess.F05
unset echo
/work/pubchem/pm6/pkg/gamess_intel/ddikick.x /work/pubchem/pm6/pkg/gamess_intel/gamess.00.x N2.SV/3.5/N2.SV.fullCI.3.5.gamess -ddi 12 12 localhost localhost localhost localhost localhost localhost localhost localhost localhost localhost localhost localhost -scr .

 Distributed Data Interface kickoff program.
 Initiating 12 compute processes on 12 nodes to run the following command:
 /work/pubchem/pm6/pkg/gamess_intel/gamess.00.x N2.SV/3.5/N2.SV.fullCI.3.5.gamess 

          ******************************************************
          *         GAMESS VERSION =  5 DEC 2014 (R1)          *
          *             FROM IOWA STATE UNIVERSITY             *
          * M.W.SCHMIDT, K.K.BALDRIDGE, J.A.BOATZ, S.T.ELBERT, *
          *   M.S.GORDON, J.H.JENSEN, S.KOSEKI, N.MATSUNAGA,   *
          *          K.A.NGUYEN, S.J.SU, T.L.WINDUS,           *
          *       TOGETHER WITH M.DUPUIS, J.A.MONTGOMERY       *
          *         J.COMPUT.CHEM.  14, 1347-1363(1993)        *
          **************** 64 BIT INTEL VERSION ****************

  SINCE 1993, STUDENTS AND POSTDOCS WORKING AT IOWA STATE UNIVERSITY
  AND ALSO IN THEIR VARIOUS JOBS AFTER LEAVING ISU HAVE MADE IMPORTANT
  CONTRIBUTIONS TO THE CODE:
     IVANA ADAMOVIC, CHRISTINE AIKENS, YURI ALEXEEV, POOJA ARORA,
     ANDREY ASADCHEV, ROB BELL, PRADIPTA BANDYOPADHYAY, JONATHAN BENTZ,
     BRETT BODE, KURT BRORSEN, CALEB CARLIN, GALINA CHABAN, WEI CHEN,
     CHEOL HO CHOI, PAUL DAY, ALBERT DEFUSCO, NUWAN DESILVA, TIM DUDLEY,
     DMITRI FEDOROV, GRAHAM FLETCHER, MARK FREITAG, KURT GLAESEMANN,
     DAN KEMP, GRANT MERRILL, NORIYUKI MINEZAWA, JONATHAN MULLIN,
     TAKESHI NAGATA, SEAN NEDD, HEATHER NETZLOFF, BOSILJKA NJEGIC, RYAN OLSON,
     MIKE PAK, SPENCER PRUITT, LUKE ROSKOP, JIM SHOEMAKER, LYUDMILA SLIPCHENKO,
     TONY SMITH, SAROM SOK, JIE SONG, TETSUYA TAKETSUGU, SIMON WEBB,
     PENG XU, SOOHAENG YOO, FEDERICO ZAHARIEV

  ADDITIONAL CODE HAS BEEN PROVIDED BY COLLABORATORS IN OTHER GROUPS:
     IOWA STATE UNIVERSITY:
          JOE IVANIC, AARON WEST, LAIMUTIS BYTAUTAS, KLAUS RUEDENBERG
     UNIVERSITY OF TOKYO: KIMIHIKO HIRAO, TAKAHITO NAKAJIMA,
          TAKAO TSUNEDA, MUNEAKI KAMIYA, SUSUMU YANAGISAWA,
          KIYOSHI YAGI, MAHITO CHIBA, SEIKEN TOKURA, NAOAKI KAWAKAMI
     UNIVERSITY OF AARHUS: FRANK JENSEN
     UNIVERSITY OF IOWA: VISVALDAS KAIRYS, HUI LI
     NATIONAL INST. OF STANDARDS AND TECHNOLOGY: WALT STEVENS, DAVID GARMER
     UNIVERSITY OF PISA: BENEDETTA MENNUCCI, JACOPO TOMASI
     UNIVERSITY OF MEMPHIS: HENRY KURTZ, PRAKASHAN KORAMBATH
     UNIVERSITY OF ALBERTA: TOBY ZENG, MARIUSZ KLOBUKOWSKI
     UNIVERSITY OF NEW ENGLAND: MARK SPACKMAN
     MIE UNIVERSITY: HIROAKI UMEDA
     NAT. INST. OF ADVANCED INDUSTRIAL SCIENCE AND TECHNOLOGY: KAZUO KITAURA
     MICHIGAN STATE UNIVERSITY:
          KAROL KOWALSKI, MARTA WLOCH, JEFFREY GOUR, JESSE LUTZ,
          WEI LI, PIOTR PIECUCH
     UNIVERSITY OF SILESIA: MONIKA MUSIAL, STANISLAW KUCHARSKI
     FACULTES UNIVERSITAIRES NOTRE-DAME DE LA PAIX:
          OLIVIER QUINET, BENOIT CHAMPAGNE
     UNIVERSITY OF CALIFORNIA - SANTA BARBARA: BERNARD KIRTMAN
     INSTITUTE FOR MOLECULAR SCIENCE:
          KAZUYA ISHIMURA, MICHIO KATOUDA, AND SHIGERU NAGASE
     UNIVERSITY OF NOTRE DAME: ANNA POMOGAEVA, DAN CHIPMAN
     KYUSHU UNIVERSITY:
          HARUYUKI NAKANO,
          FENG LONG GU, JACEK KORCHOWIEC, MARCIN MAKOWSKI, AND YURIKO AOKI,
          HIROTOSHI MORI AND EISAKU MIYOSHI
     PENNSYLVANIA STATE UNIVERSITY:
          TZVETELIN IORDANOV, CHET SWALINA, JONATHAN SKONE,
          SHARON HAMMES-SCHIFFER
     WASEDA UNIVERSITY:
          MASATO KOBAYASHI, TOMOKO AKAMA, TSUGUKI TOUMA,
          TAKESHI YOSHIKAWA, YASUHIRO IKABATA, HIROMI NAKAI
     NANJING UNIVERSITY: SHUHUA LI
     UNIVERSITY OF NEBRASKA:
          PEIFENG SU, DEJUN SI, NANDUN THELLAMUREGE, YALI WANG, HUI LI
     UNIVERSITY OF ZURICH: ROBERTO PEVERATI, KIM BALDRIDGE
     N. COPERNICUS UNIVERSITY AND JACKSON STATE UNIVERSITY:
          MARIA BARYSZ
     UNIVERSITY OF COPENHAGEN: CASPER STEINMANN
     TOKYO INSTITUTE OF TECHNOLOGY: HIROYA NAKATA
     NAGOYA UNIVERSITY: YOSHIO NISHIMOTO, STEPHAN IRLE


 PARALLEL VERSION RUNNING ON       12 PROCESSORS IN       12 NODES.

 EXECUTION OF GAMESS BEGUN Thu Jan 17 18:35:57 2019

            ECHO OF THE FIRST FEW INPUT CARDS -
 INPUT CARD> $CONTRL SCFTYP=RHF CITYP=ALDET $END                                            
 INPUT CARD> $GUESS GUESS=HUCKEL $END                                                       
 INPUT CARD> $SYSTEM MWORDS=300 $END                                                        
 INPUT CARD> $CIDET SZ=0 GROUP=C2V NCORE=2 NACT=16 NELS=10 NSTGSS=6 $END                    
 INPUT CARD> $DATA                                                                          
 INPUT CARD>N2...HF...Double-zeta basis                                                     
 INPUT CARD>Cnv   2                                                                         
 INPUT CARD>                                                                                
 INPUT CARD>N     7.0    0.0      0.0     0.0                                               
 INPUT CARD>S   7                                                                           
 INPUT CARD>  1   5909.0000000              0.0011900                                       
 INPUT CARD>  2    887.5000000              0.0090990                                       
 INPUT CARD>  3    204.7000000              0.0441450                                       
 INPUT CARD>  4     59.8400000              0.1504640                                       
 INPUT CARD>  5     20.0000000              0.3567410                                       
 INPUT CARD>  6      7.1930000              0.4465330                                       
 INPUT CARD>  7      2.6860000              0.1456030                                       
 INPUT CARD>S   2                                                                           
 INPUT CARD>  1      7.1930000             -0.1604050                                       
 INPUT CARD>  2      0.7000000              1.0582150                                       
 INPUT CARD>S   1                                                                           
 INPUT CARD>  1      0.2133000              1.0000000                                       
 INPUT CARD>P   4                                                                           
 INPUT CARD>  1     26.7900000              0.0182540                                       
 INPUT CARD>  2      5.9560000              0.1164610                                       
 INPUT CARD>  3      1.7070000              0.3901780                                       
 INPUT CARD>  4      0.5314000              0.6371020                                       
 INPUT CARD>P   1                                                                           
 INPUT CARD>  1      0.1654000              1.0000000                                       
 INPUT CARD>                                                                                
 INPUT CARD>N     7.0    0.0      0.0     3.5                                               
 INPUT CARD>S   7                                                                           
 INPUT CARD>  1   5909.0000000              0.0011900                                       
 INPUT CARD>  2    887.5000000              0.0090990                                       
 INPUT CARD>  3    204.7000000              0.0441450                                       
 INPUT CARD>  4     59.8400000              0.1504640                                       
 INPUT CARD>  5     20.0000000              0.3567410                                       
 INPUT CARD>  6      7.1930000              0.4465330                                       
 INPUT CARD>  7      2.6860000              0.1456030                                       
 INPUT CARD>S   2                                                                           
 INPUT CARD>  1      7.1930000             -0.1604050                                       
 INPUT CARD>  2      0.7000000              1.0582150                                       
 INPUT CARD>S   1                                                                           
 INPUT CARD>  1      0.2133000              1.0000000                                       
 INPUT CARD>P   4                                                                           
 INPUT CARD>  1     26.7900000              0.0182540                                       
 INPUT CARD>  2      5.9560000              0.1164610                                       
 INPUT CARD>  3      1.7070000              0.3901780                                       
 INPUT CARD>  4      0.5314000              0.6371020                                       
 INPUT CARD>P   1                                                                           
  300000000 WORDS OF MEMORY AVAILABLE


     RUN TITLE
     ---------
 N2...HF...Double-zeta basis                                                     

 THE POINT GROUP OF THE MOLECULE IS CNV     
 THE ORDER OF THE PRINCIPAL AXIS IS     2

 ATOM      ATOMIC                      COORDINATES (BOHR)
           CHARGE         X                   Y                   Z
 N           7.0     0.0000000000        0.0000000000        0.0000000000
 N           7.0     0.0000000000        0.0000000000        6.6140409570

          INTERNUCLEAR DISTANCES (ANGS.)
          ------------------------------

                1 N          2 N     

   1 N       0.0000000    3.5000000  
   2 N       3.5000000    0.0000000  

  * ... LESS THAN  3.000


     ATOMIC BASIS SET
     ----------------
 THE CONTRACTED PRIMITIVE FUNCTIONS HAVE BEEN UNNORMALIZED
 THE CONTRACTED BASIS FUNCTIONS ARE NOW NORMALIZED TO UNITY

  SHELL TYPE  PRIMITIVE        EXPONENT          CONTRACTION COEFFICIENT(S)

 N         

      1   S       1          5909.0000000    0.001189999548
      1   S       2           887.5000000    0.009098996542
      1   S       3           204.7000000    0.044144983225
      1   S       4            59.8400000    0.150463942825
      1   S       5            20.0000000    0.356740864442
      1   S       6             7.1930000    0.446532830321
      1   S       7             2.6860000    0.145602944672

      2   S       8             7.1930000   -0.160405033446
      2   S       9             0.7000000    1.058215220651

      3   S      10             0.2133000    1.000000000000

      4   P      11            26.7900000    0.018253998243
      4   P      12             5.9560000    0.116460988791
      4   P      13             1.7070000    0.390177962446
      4   P      14             0.5314000    0.637101938680

      5   P      15             0.1654000    1.000000000000

 N         

      6   S      16          5909.0000000    0.001189999548
      6   S      17           887.5000000    0.009098996542
      6   S      18           204.7000000    0.044144983225
      6   S      19            59.8400000    0.150463942825
      6   S      20            20.0000000    0.356740864442
      6   S      21             7.1930000    0.446532830321
      6   S      22             2.6860000    0.145602944672

      7   S      23             7.1930000   -0.160405033446
      7   S      24             0.7000000    1.058215220651

      8   S      25             0.2133000    1.000000000000

      9   P      26            26.7900000    0.018253998243
      9   P      27             5.9560000    0.116460988791
      9   P      28             1.7070000    0.390177962446
      9   P      29             0.5314000    0.637101938680

     10   P      30             0.1654000    1.000000000000

 TOTAL NUMBER OF BASIS SET SHELLS             =   10
 NUMBER OF CARTESIAN GAUSSIAN BASIS FUNCTIONS =   18
 NUMBER OF ELECTRONS                          =   14
 CHARGE OF MOLECULE                           =    0
 SPIN MULTIPLICITY                            =    1
 NUMBER OF OCCUPIED ORBITALS (ALPHA)          =    7
 NUMBER OF OCCUPIED ORBITALS (BETA )          =    7
 TOTAL NUMBER OF ATOMS                        =    2
 THE NUCLEAR REPULSION ENERGY IS        7.4084814894

 THIS MOLECULE IS RECOGNIZED AS BEING LINEAR,
 ORBITAL LZ DEGENERACY TOLERANCE ETOLLZ= 1.00E-06

     $CONTRL OPTIONS
     ---------------
 SCFTYP=RHF          RUNTYP=ENERGY       EXETYP=RUN     
 MPLEVL=       0     CITYP =ALDET        CCTYP =NONE         VBTYP =NONE    
 DFTTYP=NONE         TDDFT =NONE    
 MULT  =       1     ICHARG=       0     NZVAR =       0     COORD =UNIQUE  
 PP    =NONE         RELWFN=NONE         LOCAL =NONE         NUMGRD=       F
 ISPHER=      -1     NOSYM =       0     MAXIT =      30     UNITS =ANGS    
 PLTORB=       F     MOLPLT=       F     AIMPAC=       F     FRIEND=        
 NPRINT=       7     IREST =       0     GEOM  =INPUT   
 NORMF =       0     NORMP =       0     ITOL  =      20     ICUT  =       9
 INTTYP=BEST         GRDTYP=BEST         QMTTOL= 1.0E-06

     $SYSTEM OPTIONS
     ---------------
  REPLICATED MEMORY=   300000000 WORDS (ON EVERY NODE).
 DISTRIBUTED MEMDDI=           0 MILLION WORDS IN AGGREGATE,
 MEMDDI DISTRIBUTED OVER  12 PROCESSORS IS           0 WORDS/PROCESSOR.
 TOTAL MEMORY REQUESTED ON EACH PROCESSOR=   300000000 WORDS.
 TIMLIM=      525600.00 MINUTES, OR     365.0 DAYS.
 PARALL= T  BALTYP=  DLB     KDIAG=    0  COREFL= F
 MXSEQ2=     300 MXSEQ3=     150  mem10=         0

          ----------------
          PROPERTIES INPUT
          ----------------

     MOMENTS            FIELD           POTENTIAL          DENSITY
 IEMOM =       1   IEFLD =       0   IEPOT =       0   IEDEN =       0
 WHERE =COMASS     WHERE =NUCLEI     WHERE =NUCLEI     WHERE =NUCLEI  
 OUTPUT=BOTH       OUTPUT=BOTH       OUTPUT=BOTH       OUTPUT=BOTH    
 IEMINT=       0   IEFINT=       0                     IEDINT=       0
                                                       MORB  =       0
          EXTRAPOLATION IN EFFECT
          SOSCF IN EFFECT
 ORBITAL PRINTING OPTION: NPREO=     1    18     2     1

     -------------------------------
     INTEGRAL TRANSFORMATION OPTIONS
     -------------------------------
     NWORD  =            0
     CUTOFF = 1.0E-09     MPTRAN =       0
     DIRTRF =       F     AOINTS =DUP     

          ----------------------
          INTEGRAL INPUT OPTIONS
          ----------------------
 NOPK  =       1 NORDER=       0 SCHWRZ=       F

     ------------------------------------------
     THE POINT GROUP IS CNV, NAXIS= 2, ORDER= 4
     ------------------------------------------

     DIMENSIONS OF THE SYMMETRY SUBSPACES ARE
 A1  =   10     A2  =    0     B1  =    4     B2  =    4

 ..... DONE SETTING UP THE RUN .....
 CPU     0: STEP CPU TIME=     0.02 TOTAL CPU TIME=        0.0 (    0.0 MIN)
 TOTAL WALL CLOCK TIME=        0.0 SECONDS, CPU UTILIZATION IS 100.00%

          ********************
          1 ELECTRON INTEGRALS
          ********************
 ...... END OF ONE-ELECTRON INTEGRALS ......
 CPU     0: STEP CPU TIME=     0.00 TOTAL CPU TIME=        0.0 (    0.0 MIN)
 TOTAL WALL CLOCK TIME=        0.0 SECONDS, CPU UTILIZATION IS  40.00%

          -------------
          GUESS OPTIONS
          -------------
          GUESS =HUCKEL            NORB  =       0          NORDER=       0
          MIX   =       F          PRTMO =       F          PUNMO =       F
          TOLZ  = 1.0E-08          TOLE  = 1.0E-05
          SYMDEN=       F          PURIFY=       F

 INITIAL GUESS ORBITALS GENERATED BY HUCKEL   ROUTINE.
 HUCKEL GUESS REQUIRES      4352 WORDS.

 SYMMETRIES FOR INITIAL GUESS ORBITALS FOLLOW.   BOTH SET(S).
     7 ORBITALS ARE OCCUPIED (    2 CORE ORBITALS).
     3=A1       4=A1       5=A1       6=B1       7=B2       8=B1       9=B2  
    10=A1      11=A1      12=A1      13=A1      14=A1      15=B1      16=B1  
    17=B2  
 ...... END OF INITIAL ORBITAL SELECTION ......
 CPU     0: STEP CPU TIME=     0.00 TOTAL CPU TIME=        0.0 (    0.0 MIN)
 TOTAL WALL CLOCK TIME=        0.1 SECONDS, CPU UTILIZATION IS  33.33%

                    ----------------------
                    AO INTEGRAL TECHNOLOGY
                    ----------------------
     S,P,L SHELL ROTATED AXIS INTEGRALS, REPROGRAMMED BY
        KAZUYA ISHIMURA (IMS) AND JOSE SIERRA (SYNSTAR).
     S,P,D,L SHELL ROTATED AXIS INTEGRALS PROGRAMMED BY
        KAZUYA ISHIMURA (INSTITUTE FOR MOLECULAR SCIENCE).
     S,P,D,F,G SHELL TO TOTAL QUARTET ANGULAR MOMENTUM SUM 5,
        ERIC PROGRAM BY GRAHAM FLETCHER (ELORET AND NASA ADVANCED
        SUPERCOMPUTING DIVISION, AMES RESEARCH CENTER).
     S,P,D,F,G,L SHELL GENERAL RYS QUADRATURE PROGRAMMED BY
        MICHEL DUPUIS (PACIFIC NORTHWEST NATIONAL LABORATORY).

          --------------------
          2 ELECTRON INTEGRALS
          --------------------

 THE -PK- OPTION IS OFF, THE INTEGRALS ARE NOT IN SUPERMATRIX FORM.
 STORING   15000 INTEGRALS/RECORD ON DISK, USING 12 BYTES/INTEGRAL.
 TWO ELECTRON INTEGRAL EVALUATION REQUIRES   89411 WORDS OF MEMORY.
 II,JST,KST,LST =  1  1  1  1 NREC =         1 INTLOC =    1
 II,JST,KST,LST =  2  1  1  1 NREC =         1 INTLOC =    2
 II,JST,KST,LST =  3  1  1  1 NREC =         1 INTLOC =    7
 II,JST,KST,LST =  4  1  1  1 NREC =         1 INTLOC =   13
 II,JST,KST,LST =  5  1  1  1 NREC =         1 INTLOC =   58
 II,JST,KST,LST =  6  1  1  1 NREC =         1 INTLOC =   58
 II,JST,KST,LST =  7  1  1  1 NREC =         1 INTLOC =   64
 II,JST,KST,LST =  8  1  1  1 NREC =         1 INTLOC =  105
 II,JST,KST,LST =  9  1  1  1 NREC =         1 INTLOC =  229
 II,JST,KST,LST = 10  1  1  1 NREC =         1 INTLOC =  438
 TOTAL NUMBER OF NONZERO TWO-ELECTRON INTEGRALS =                3677
         12 INTEGRAL RECORDS WERE STORED ON DISK FILE  8.
  ...... END OF TWO-ELECTRON INTEGRALS .....
 CPU     0: STEP CPU TIME=     0.02 TOTAL CPU TIME=        0.0 (    0.0 MIN)
 TOTAL WALL CLOCK TIME=        0.1 SECONDS, CPU UTILIZATION IS  57.14%

          --------------------------
                 RHF SCF CALCULATION
          --------------------------

     NUCLEAR ENERGY =         7.4084814894
     MAXIT =   30     NPUNCH=    2
     EXTRAP=T  DAMP=F  SHIFT=F  RSTRCT=F  DIIS=F  DEM=F  SOSCF=T
     DENSITY MATRIX CONV=  1.00E-06
     SOSCF WILL OPTIMIZE      77 ORBITAL ROTATIONS, SOGTOL=   0.250
     MEMORY REQUIRED FOR RHF ITERS=     32828 WORDS.

 ITER EX DEM     TOTAL ENERGY        E CHANGE  DENSITY CHANGE     ORB. GRAD
   1  0  0     -107.7343554350  -107.7343554350   0.275636249   0.000000000
          ---------------START SECOND ORDER SCF---------------
   2  1  0     -107.9261134117    -0.1917579767   0.119067608   0.061741768
   3  2  0     -107.9415448658    -0.0154314541   0.025033660   0.023757254
   4  3  0     -107.9443562437    -0.0028113779   0.003106478   0.001852960
   5  4  0     -107.9443741053    -0.0000178617   0.001047169   0.000392914
   6  5  0     -107.9443751243    -0.0000010189   0.000039174   0.000029677
   7  6  0     -107.9443751313    -0.0000000070   0.000018667   0.000007874
   8  7  0     -107.9443751318    -0.0000000005   0.000001094   0.000000552
   9  8  0     -107.9443751318    -0.0000000000   0.000000057   0.000000042

          -----------------
          DENSITY CONVERGED
          -----------------
     TIME TO FORM FOCK OPERATORS=       0.0 SECONDS (       0.0 SEC/ITER)
     TIME TO SOLVE SCF EQUATIONS=       0.0 SECONDS (       0.0 SEC/ITER)

 FINAL RHF ENERGY IS     -107.9443751318 AFTER   9 ITERATIONS

 LZ VALUE ANALYSIS FOR THE MOS
 ----------------------------------------
 MO     1 (    1) HAS LZ(WEIGHT)= 0.00(100.0%) 
 MO     2 (    2) HAS LZ(WEIGHT)= 0.00(100.0%) 
 MO     3 (    3) HAS LZ(WEIGHT)= 0.00(100.0%) 
 MO     4 (    4) HAS LZ(WEIGHT)= 0.00(100.0%) 
 MO     5 (    5) HAS LZ(WEIGHT)= 0.00(100.0%) 
 MO     6 (    6) HAS LZ(WEIGHT)=-1.00( 50.0%)  1.00( 50.0%) 
 MO     7 (    6) HAS LZ(WEIGHT)=-1.00( 50.0%)  1.00( 50.0%) 
 MO     8 (    7) HAS LZ(WEIGHT)=-1.00( 50.0%)  1.00( 50.0%) 
 MO     9 (    7) HAS LZ(WEIGHT)=-1.00( 50.0%)  1.00( 50.0%) 
 MO    10 (    8) HAS LZ(WEIGHT)= 0.00(100.0%) 
 MO    11 (    9) HAS LZ(WEIGHT)= 0.00(100.0%) 
 MO    12 (   10) HAS LZ(WEIGHT)=-1.00( 50.0%)  1.00( 50.0%) 
 MO    13 (   10) HAS LZ(WEIGHT)=-1.00( 50.0%)  1.00( 50.0%) 
 MO    14 (   11) HAS LZ(WEIGHT)=-1.00( 50.0%)  1.00( 50.0%) 
 MO    15 (   11) HAS LZ(WEIGHT)=-1.00( 50.0%)  1.00( 50.0%) 
 MO    16 (   12) HAS LZ(WEIGHT)= 0.00(100.0%) 
 MO    17 (   13) HAS LZ(WEIGHT)= 0.00(100.0%) 
 MO    18 (   14) HAS LZ(WEIGHT)= 0.00(100.0%) 

          ------------
          EIGENVECTORS
          ------------

                      1          2          3          4          5
                  -15.8314   -15.8314    -1.0378    -1.0260    -0.3467
                     A1         A1         A1         A1         A1  
    1  N  1  S    0.706981  -0.706986  -0.173045  -0.173894  -0.005379
    2  N  1  S   -0.000161   0.000158   0.408665   0.415530   0.027233
    3  N  1  S    0.000927  -0.000891   0.358636   0.353669  -0.007969
    4  N  1  X    0.000000   0.000000   0.000000   0.000000   0.000000
    5  N  1  Y    0.000000   0.000000   0.000000   0.000000   0.000000
    6  N  1  Z    0.000165  -0.000101   0.003075  -0.012163  -0.485786
    7  N  1  X    0.000000   0.000000   0.000000   0.000000   0.000000
    8  N  1  Y    0.000000   0.000000   0.000000   0.000000   0.000000
    9  N  1  Z   -0.000052   0.000053   0.005749  -0.007699  -0.299339
   10  N  2  S    0.706981   0.706986  -0.173045   0.173894  -0.005379
   11  N  2  S   -0.000161  -0.000158   0.408665  -0.415530   0.027233
   12  N  2  S    0.000927   0.000891   0.358636  -0.353669  -0.007969
   13  N  2  X    0.000000   0.000000   0.000000   0.000000   0.000000
   14  N  2  Y    0.000000   0.000000   0.000000   0.000000   0.000000
   15  N  2  Z   -0.000165  -0.000101  -0.003075  -0.012163   0.485786
   16  N  2  X    0.000000   0.000000   0.000000   0.000000   0.000000
   17  N  2  Y    0.000000   0.000000   0.000000   0.000000   0.000000
   18  N  2  Z    0.000052   0.000053  -0.005749  -0.007699   0.299339

                      6          7          8          9         10
                   -0.3335    -0.3335    -0.1815    -0.1815    -0.1589
                     B1         B2         B1         B2         A1  
    1  N  1  S    0.000000   0.000000   0.000000   0.000000  -0.007166
    2  N  1  S    0.000000   0.000000   0.000000   0.000000   0.025183
    3  N  1  S    0.000000   0.000000   0.000000   0.000000   0.003879
    4  N  1  X    0.504628   0.000000  -0.510025   0.000000   0.000000
    5  N  1  Y    0.000000   0.504628   0.000000  -0.510025   0.000000
    6  N  1  Z    0.000000   0.000000   0.000000   0.000000   0.518900
    7  N  1  X    0.293609   0.000000  -0.292327   0.000000   0.000000
    8  N  1  Y    0.000000   0.293609   0.000000  -0.292327   0.000000
    9  N  1  Z    0.000000   0.000000   0.000000   0.000000   0.297064
   10  N  2  S    0.000000   0.000000   0.000000   0.000000   0.007166
   11  N  2  S    0.000000   0.000000   0.000000   0.000000  -0.025183
   12  N  2  S    0.000000   0.000000   0.000000   0.000000  -0.003879
   13  N  2  X    0.504628   0.000000   0.510025   0.000000   0.000000
   14  N  2  Y    0.000000   0.504628   0.000000   0.510025   0.000000
   15  N  2  Z    0.000000   0.000000   0.000000   0.000000   0.518900
   16  N  2  X    0.293609   0.000000   0.292327   0.000000   0.000000
   17  N  2  Y    0.000000   0.293609   0.000000   0.292327   0.000000
   18  N  2  Z    0.000000   0.000000   0.000000   0.000000   0.297064

                     11         12         13         14         15
                    0.5749     0.6189     0.6189     0.6620     0.6620
                     A1         B1         B2         B1         B2  
    1  N  1  S    0.017669   0.000000   0.000000   0.000000   0.000000
    2  N  1  S   -0.163912   0.000000   0.000000   0.000000   0.000000
    3  N  1  S    0.137495   0.000000   0.000000   0.000000   0.000000
    4  N  1  X    0.000000  -0.657946   0.000000  -0.661841   0.000000
    5  N  1  Y    0.000000   0.000000  -0.657946   0.000000  -0.661841
    6  N  1  Z   -0.651700   0.000000   0.000000   0.000000   0.000000
    7  N  1  X    0.000000   0.763783   0.000000   0.794958   0.000000
    8  N  1  Y    0.000000   0.000000   0.763783   0.000000   0.794958
    9  N  1  Z    0.682880   0.000000   0.000000   0.000000   0.000000
   10  N  2  S    0.017669   0.000000   0.000000   0.000000   0.000000
   11  N  2  S   -0.163912   0.000000   0.000000   0.000000   0.000000
   12  N  2  S    0.137495   0.000000   0.000000   0.000000   0.000000
   13  N  2  X    0.000000  -0.657946   0.000000   0.661841   0.000000
   14  N  2  Y    0.000000   0.000000  -0.657946   0.000000   0.661841
   15  N  2  Z    0.651700   0.000000   0.000000   0.000000   0.000000
   16  N  2  X    0.000000   0.763783   0.000000  -0.794958   0.000000
   17  N  2  Y    0.000000   0.000000   0.763783   0.000000  -0.794958
   18  N  2  Z   -0.682880   0.000000   0.000000   0.000000   0.000000

                     16         17         18
                    0.7243     0.8857     0.9716
                     A1         A1         A1  
    1  N  1  S   -0.033010  -0.089741  -0.083540
    2  N  1  S    0.357455   1.091706   1.060201
    3  N  1  S   -0.331642  -1.085319  -1.075312
    4  N  1  X    0.000000   0.000000   0.000000
    5  N  1  Y    0.000000   0.000000   0.000000
    6  N  1  Z   -0.632922  -0.108093   0.239250
    7  N  1  X    0.000000   0.000000   0.000000
    8  N  1  Y    0.000000   0.000000   0.000000
    9  N  1  Z    0.817595   0.150294  -0.349576
   10  N  2  S    0.033010  -0.089741   0.083540
   11  N  2  S   -0.357455   1.091706  -1.060201
   12  N  2  S    0.331642  -1.085319   1.075312
   13  N  2  X    0.000000   0.000000   0.000000
   14  N  2  Y    0.000000   0.000000   0.000000
   15  N  2  Z   -0.632922   0.108093   0.239250
   16  N  2  X    0.000000   0.000000   0.000000
   17  N  2  Y    0.000000   0.000000   0.000000
   18  N  2  Z    0.817595  -0.150294  -0.349576
 ...... END OF RHF CALCULATION ......
 CPU     0: STEP CPU TIME=     0.00 TOTAL CPU TIME=        0.0 (    0.0 MIN)
 TOTAL WALL CLOCK TIME=        0.1 SECONDS, CPU UTILIZATION IS  50.00%

     ----------------------------------------------------------------
     PROPERTY VALUES FOR THE RHF   SELF-CONSISTENT FIELD WAVEFUNCTION
     ----------------------------------------------------------------

          -----------------
          ENERGY COMPONENTS
          -----------------

         WAVEFUNCTION NORMALIZATION =       1.0000000000

                ONE ELECTRON ENERGY =    -161.2251514885
                TWO ELECTRON ENERGY =      45.8722948673
           NUCLEAR REPULSION ENERGY =       7.4084814894
                                      ------------------
                       TOTAL ENERGY =    -107.9443751318

 ELECTRON-ELECTRON POTENTIAL ENERGY =      45.8722948673
  NUCLEUS-ELECTRON POTENTIAL ENERGY =    -268.6428333983
   NUCLEUS-NUCLEUS POTENTIAL ENERGY =       7.4084814894
                                      ------------------
             TOTAL POTENTIAL ENERGY =    -215.3620570416
               TOTAL KINETIC ENERGY =     107.4176819098
                 VIRIAL RATIO (V/T) =       2.0049032265

  ...... PI ENERGY ANALYSIS ......

 ENERGY ANALYSIS:
            FOCK ENERGY=    -69.4805613364
          BARE H ENERGY=   -161.2251514885
     ELECTRONIC ENERGY =   -115.3528564124
         KINETIC ENERGY=    107.4176819098
          N-N REPULSION=      7.4084814894
           TOTAL ENERGY=   -107.9443749231
        SIGMA PART(1+2)=   -103.4574815193
               (K,V1,2)=    100.9787682821   -239.7471113434     35.3108615421
           PI PART(1+2)=    -11.8953748931
               (K,V1,2)=      6.4389136277    -28.8957220548     10.5614335340
  SIGMA SKELETON, ERROR=    -96.0490000299      0.0000000000
             MIXED PART= 0.00000E+00 0.00000E+00 0.00000E+00 0.00000E+00
 ...... END OF PI ENERGY ANALYSIS ......

          ---------------------------------------
          MULLIKEN AND LOWDIN POPULATION ANALYSES
          ---------------------------------------

               ----- POPULATIONS IN EACH AO -----
                             MULLIKEN      LOWDIN
              1  N  1  S      2.00013     1.99716
              2  N  1  S      1.07047     1.03823
              3  N  1  S      0.92905     0.96377
              4  N  1  X      0.66613     0.63988
              5  N  1  Y      0.66613     0.63988
              6  N  1  Z      0.63133     0.60290
              7  N  1  X      0.33387     0.36012
              8  N  1  Y      0.33387     0.36012
              9  N  1  Z      0.36903     0.39793
             10  N  2  S      2.00013     1.99716
             11  N  2  S      1.07047     1.03823
             12  N  2  S      0.92905     0.96377
             13  N  2  X      0.66613     0.63988
             14  N  2  Y      0.66613     0.63988
             15  N  2  Z      0.63133     0.60290
             16  N  2  X      0.33387     0.36012
             17  N  2  Y      0.33387     0.36012
             18  N  2  Z      0.36903     0.39793

          ----- MULLIKEN ATOMIC OVERLAP POPULATIONS -----
          (OFF-DIAGONAL ELEMENTS NEED TO BE MULTIPLIED BY 2)

             1           2

    1    6.9460968
    2    0.0539032   6.9460968

          TOTAL MULLIKEN AND LOWDIN ATOMIC POPULATIONS
       ATOM         MULL.POP.    CHARGE          LOW.POP.     CHARGE
    1 N             7.000000   -0.000000         7.000000   -0.000000
    2 N             7.000000    0.000000         7.000000    0.000000

          ---------------------
          ELECTROSTATIC MOMENTS
          ---------------------

 POINT   1           X           Y           Z (BOHR)    CHARGE
                 0.000000    0.000000    3.307020       -0.00 (A.U.)
         DX          DY          DZ         /D/  (DEBYE)
     0.000000    0.000000    0.000000    0.000000
 ...... END OF PROPERTY EVALUATION ......
 CPU     0: STEP CPU TIME=     0.01 TOTAL CPU TIME=        0.0 (    0.0 MIN)
 TOTAL WALL CLOCK TIME=        0.1 SECONDS, CPU UTILIZATION IS  38.46%

 DETERMINANT CI OPTIONS   NRNFG   NPFLG
 INTEGRAL TRANSFORMATION    1       0
 DIAGONALIZE HAMILTONIAN    1       0
 FORM 1E- DENSITY MATRIX    1       0
 FORM 2E- DENSITY MATRIX    0       0

     --------------------------------------------------
          AMES LABORATORY DETERMINANTAL FULL CI
     PROGRAM WRITTEN BY JOE IVANIC AND KLAUS RUEDENBERG
     --------------------------------------------------

 THE POINT GROUP                  =   C2V     
 THE STATE SYMMETRY               =   A1      
 NUMBER OF CORE ORBITALS          =    2
 NUMBER OF ACTIVE ORBITALS        =   16
 NUMBER OF ALPHA ELECTRONS        =    7 (   5 ACTIVE)
 NUMBER OF BETA ELECTRONS         =    7 (   5 ACTIVE)
 NUMBER OF OCCUPIED ORBITALS      =   18
 NUMBER OF CI STATES REQUESTED    =    1
 NUMBER OF CI STARTING VECTORS    =    6
 MAX. NO. OF CI EXPANSION VECTORS =   12
 SIZE OF INITIAL CI GUESS MATRIX  =  300
 MAX. NO. OF CI ITERS/STATE       =  100
 CI DIAGONALIZATION CRITERION     = 1.00E-06
 CI PROPERTIES WILL BE FOUND FOR ROOT NUMBER   1
 1E- DENSITY MATRIX OPTIONS ARE 1

 CORRELATION ENERGY ANALYSIS      =    F

 SYMMETRIES FOR THE   2 CORE,  16 ACTIVE ARE

     CORE= A1    A1  

   ACTIVE= A1    A1    A1    B1    B2    B1    B2    A1    A1    B1  
           B2    B1    B2    A1    A1    A1  

     --------------------------------------------
     PARTIAL TWO ELECTRON INTEGRAL TRANSFORMATION
     --------------------------------------------

 NUMBER OF CORE MOLECULAR ORBITALS     =    2
 NUMBER OF OCCUPIED MOLECULAR ORBITALS =   18
 TOTAL NUMBER OF MOLECULAR ORBITALS    =   18
 TOTAL NUMBER OF ATOMIC ORBITALS       =   18
 THRESHOLD FOR KEEPING TRANSFORMED 2E- INTEGRALS = 1.000E-09

 -------------------------------     ------------------------------
 DISTRIBUTED DATA TRANSFORMATION     PROGRAM WRITTEN BY G. FLETCHER
 -------------------------------     ------------------------------

 THE DISTRIBUTED MEMORY REQUIRED FOR THIS STEP IS MEMDDI=         1 MWORDS
 CREATING DISTRIBUTED STORAGE FOR [OCC OCC|OCC OCC] INTEGRALS
 DDI: Creating Array [0] - 171 x 171 = 29241 words.
 CREATING WORKSPACE OF SIZE VVOO
 DDI: Creating Array [1] - 171 x 171 = 29241 words.
 FOR   12 PROCESSORS, THE REPLICATED MEMORY NEEDED IS       58507 WORDS.

      DIRECT 4-INDEX TRANSFORMATION 
      SCHWARZ INEQUALITY TEST SKIPPED          0 INTEGRAL BLOCKS
 ----- FROZEN CORE ENERGY =       -93.0928556569
 ... END OF INTEGRAL TRANSFORMATION ...
 CPU     0: STEP CPU TIME=     0.01 TOTAL CPU TIME=        0.1 (    0.0 MIN)
 TOTAL WALL CLOCK TIME=        0.2 SECONDS, CPU UTILIZATION IS  35.29%

     --------------------------------------------------
          AMES LABORATORY DETERMINANTAL FULL CI
     PROGRAM WRITTEN BY JOE IVANIC AND KLAUS RUEDENBERG
     --------------------------------------------------

 THE NUMBER OF DETERMINANTS HAVING SPACE SYMMETRY A1 
 IN POINT GROUP C2V  WITH SZ=  0.0 IS        4777056
 THE DETERMINANT FULL CI REQUIRES       119865995 WORDS
 INITIAL CI VECTOR GUESS TIME  :          1.8
 INITIAL FULL CI ITERATION TIME:          5.6

 ITERATION      ENERGY           GRADIENT
     0     -108.7433044209     0.45586608
     1     -108.8428331065     0.18393629
     2     -108.8549587138     0.06892745
     3     -108.8564680444     0.03053795
     4     -108.8567783002     0.01545495
     5     -108.8568507299     0.00616373
     6     -108.8568611842     0.00226990
     7     -108.8568624478     0.00122524
     8     -108.8568629986     0.00106406
     9     -108.8568632736     0.00085530
    10     -108.8568634441     0.00054244
    11     -108.8568635115     0.00038841
    12     -108.8568635448     0.00022271
    13     -108.8568635547     0.00014102
    14     -108.8568635609     0.00012765
    15     -108.8568635667     0.00012872
    16     -108.8568635713     0.00012464
    17     -108.8568635767     0.00013773
    18     -108.8568635868     0.00017939
    19     -108.8568635982     0.00016299
    20     -108.8568636155     0.00024478
    21     -108.8568636492     0.00043745
    22     -108.8568637797     0.00084158
    23     -108.8568645554     0.00228615
    24     -108.8568926253     0.01783771
    25     -108.8569719263     0.01456453
    26     -108.8570419730     0.01070996
    27     -108.8570687911     0.00713789
    28     -108.8570773058     0.00398350
    29     -108.8570807115     0.00224590
    30     -108.8570820947     0.00150554
    31     -108.8570826020     0.00085618
    32     -108.8570828517     0.00069070
    33     -108.8570829782     0.00057201
    34     -108.8570830411     0.00031796
    35     -108.8570830648     0.00017206
    36     -108.8570830712     0.00012770
    37     -108.8570830742     0.00008050
    38     -108.8570830761     0.00005492
    39     -108.8570830769     0.00003876
    40     -108.8570830772     0.00002197
    41     -108.8570830773     0.00001395
    42     -108.8570830774     0.00001135
    43     -108.8570830774     0.00000615
    44     -108.8570830774     0.00000489
    45     -108.8570830774     0.00000438
    46     -108.8570830774     0.00000260
    47     -108.8570830774     0.00000164
    48     -108.8570830774     0.00000139
    49     -108.8570830774     0.00000082

 CONVERGED STATE    1 ENERGY=     -108.8570830774 IN   49 ITERS

 ALL STATES CONVERGED.

 CI EIGENVECTORS WILL BE LABELED IN GROUP=C2V     
 PRINTING CI COEFFICIENTS LARGER THAN  0.050000

 STATE   1  ENERGY=      -108.8570830774  S=  0.00  SZ=  0.00  SPACE SYM=A1  

      ALPHA       |      BETA        | COEFFICIENT
------------------|------------------|------------
 1111100000000000 | 1111100000000000 |   0.2554935
 1110110000000000 | 1110110000000000 |  -0.2513086
 1111001000000000 | 1111001000000000 |  -0.2513086
 1110011000000000 | 1110011000000000 |   0.2472430
 1101100100000000 | 1101100100000000 |  -0.2325961
 1100110100000000 | 1100110100000000 |   0.2290666
 1101001100000000 | 1101001100000000 |   0.2290666
 1100011100000000 | 1100011100000000 |  -0.2256414
 1111010000000000 | 1110101000000000 |   0.1675103
 1110101000000000 | 1111010000000000 |   0.1675103
 1101110000000000 | 1110100100000000 |  -0.1605706
 1111000100000000 | 1101101000000000 |   0.1605706
 1110100100000000 | 1101110000000000 |  -0.1605706
 1101101000000000 | 1111000100000000 |   0.1605706
 1101011000000000 | 1110001100000000 |  -0.1580490
 1110010100000000 | 1100111000000000 |   0.1580490
 1110001100000000 | 1101011000000000 |  -0.1580490
 1100111000000000 | 1110010100000000 |   0.1580490
 1101010100000000 | 1100101100000000 |  -0.1526840
 1100101100000000 | 1101010100000000 |  -0.1526840
 1110110000000000 | 1111001000000000 |   0.0837916
 1111001000000000 | 1110110000000000 |   0.0837916
 1111100000000000 | 1110011000000000 |   0.0837187
 1110011000000000 | 1111100000000000 |   0.0837187
 1101100100000000 | 1111001000000000 |   0.0804940
 1111001000000000 | 1101100100000000 |   0.0804940
 1110110000000000 | 1101100100000000 |  -0.0804940
 1101100100000000 | 1110110000000000 |  -0.0804940
 1101001100000000 | 1111100000000000 |  -0.0800766
 1111100000000000 | 1101001100000000 |  -0.0800766
 1111100000000000 | 1100110100000000 |   0.0800766
 1100110100000000 | 1111100000000000 |   0.0800766
 1100110100000000 | 1110011000000000 |   0.0792318
 1110011000000000 | 1100110100000000 |   0.0792318
 1110011000000000 | 1101001100000000 |  -0.0792318
 1101001100000000 | 1110011000000000 |  -0.0792318
 1100011100000000 | 1110110000000000 |  -0.0788171
 1110110000000000 | 1100011100000000 |  -0.0788171
 1111001000000000 | 1100011100000000 |   0.0788171
 1100011100000000 | 1111001000000000 |   0.0788171
 1100110100000000 | 1101001100000000 |  -0.0763768
 1101001100000000 | 1100110100000000 |  -0.0763768
 1101100100000000 | 1100011100000000 |  -0.0763072
 1100011100000000 | 1101100100000000 |  -0.0763072
 ..... DONE WITH DETERMINANT CI COMPUTATION .....
 CPU     0: STEP CPU TIME=   131.17 TOTAL CPU TIME=      131.2 (    2.2 MIN)
 TOTAL WALL CLOCK TIME=      169.5 SECONDS, CPU UTILIZATION IS  77.43%

     ---------------------------
     ONE PARTICLE DENSITY MATRIX
     ---------------------------

 DENSITY MATRIX WILL BE SAVED FOR   1-TH STATE WITH S= 0.00

 CI EIGENSTATE   1 TOTAL ENERGY =     -108.8570830774

          NATURAL ORBITALS IN ATOMIC ORBITAL BASIS
          ----------------------------------------

                      1          2          3          4          5
                    2.0000     2.0000     1.9852     1.9844     1.0608
                     A1         A1         A1         A1         A1  
    1  N  1  S    0.706981   0.706986  -0.170617  -0.171388  -0.001577
    2  N  1  S   -0.000161  -0.000158   0.379645   0.384228   0.004764
    3  N  1  S    0.000927   0.000891   0.387262   0.385163   0.003382
    4  N  1  X    0.000000   0.000000   0.000000   0.000000   0.000000
    5  N  1  Y    0.000000   0.000000   0.000000   0.000000   0.000000
    6  N  1  Z    0.000165   0.000101  -0.002091   0.001894  -0.550066
    7  N  1  X    0.000000   0.000000   0.000000   0.000000   0.000000
    8  N  1  Y    0.000000   0.000000   0.000000   0.000000   0.000000
    9  N  1  Z   -0.000052  -0.000053   0.001810  -0.002808  -0.227791
   10  N  2  S    0.706981  -0.706986  -0.170617   0.171388  -0.001577
   11  N  2  S   -0.000161   0.000158   0.379645  -0.384228   0.004764
   12  N  2  S    0.000927  -0.000891   0.387262  -0.385163   0.003382
   13  N  2  X    0.000000   0.000000   0.000000   0.000000   0.000000
   14  N  2  Y    0.000000   0.000000   0.000000   0.000000   0.000000
   15  N  2  Z   -0.000165   0.000101   0.002091   0.001894   0.550066
   16  N  2  X    0.000000   0.000000   0.000000   0.000000   0.000000
   17  N  2  Y    0.000000   0.000000   0.000000   0.000000   0.000000
   18  N  2  Z    0.000052  -0.000053  -0.001810  -0.002808   0.227791

                      6          7          8          9         10
                    1.0065     1.0065     0.9845     0.9845     0.9304
                     B2         B1         B1         B2         A1  
    1  N  1  S    0.000000   0.000000   0.000000   0.000000  -0.001894
    2  N  1  S    0.000000   0.000000   0.000000   0.000000   0.005016
    3  N  1  S    0.000000   0.000000   0.000000   0.000000   0.003772
    4  N  1  X    0.000000   0.558037  -0.562082   0.000000   0.000000
    5  N  1  Y    0.558037   0.000000   0.000000  -0.562082   0.000000
    6  N  1  Z    0.000000   0.000000   0.000000   0.000000   0.570631
    7  N  1  X    0.000000   0.228510  -0.226812   0.000000   0.000000
    8  N  1  Y    0.228510   0.000000   0.000000  -0.226812   0.000000
    9  N  1  Z    0.000000   0.000000   0.000000   0.000000   0.226783
   10  N  2  S    0.000000   0.000000   0.000000   0.000000   0.001894
   11  N  2  S    0.000000   0.000000   0.000000   0.000000  -0.005016
   12  N  2  S    0.000000   0.000000   0.000000   0.000000  -0.003772
   13  N  2  X    0.000000   0.558037   0.562082   0.000000   0.000000
   14  N  2  Y    0.558037   0.000000   0.000000   0.562082   0.000000
   15  N  2  Z    0.000000   0.000000   0.000000   0.000000   0.570631
   16  N  2  X    0.000000   0.228510   0.226812   0.000000   0.000000
   17  N  2  Y    0.228510   0.000000   0.000000   0.226812   0.000000
   18  N  2  Z    0.000000   0.000000   0.000000   0.000000   0.226783

                     11         12         13         14         15
                    0.0115     0.0105     0.0067     0.0061     0.0061
                     A1         A1         A1         B2         B1  
    1  N  1  S   -0.094965   0.093959   0.014429   0.000000   0.000000
    2  N  1  S    1.093170  -1.110463  -0.217406   0.000000   0.000000
    3  N  1  S   -1.057886   1.088683   0.237485   0.000000   0.000000
    4  N  1  X    0.000000   0.000000   0.000000   0.000000  -0.613300
    5  N  1  Y    0.000000   0.000000   0.000000  -0.613300   0.000000
    6  N  1  Z    0.101196   0.090244   0.599647   0.000000   0.000000
    7  N  1  X    0.000000   0.000000   0.000000   0.000000   0.785719
    8  N  1  Y    0.000000   0.000000   0.000000   0.785719   0.000000
    9  N  1  Z   -0.100189  -0.104542  -0.718763   0.000000   0.000000
   10  N  2  S   -0.094965  -0.093959   0.014429   0.000000   0.000000
   11  N  2  S    1.093170   1.110463  -0.217406   0.000000   0.000000
   12  N  2  S   -1.057886  -1.088683   0.237485   0.000000   0.000000
   13  N  2  X    0.000000   0.000000   0.000000   0.000000  -0.613300
   14  N  2  Y    0.000000   0.000000   0.000000  -0.613300   0.000000
   15  N  2  Z   -0.101196   0.090244  -0.599647   0.000000   0.000000
   16  N  2  X    0.000000   0.000000   0.000000   0.000000   0.785719
   17  N  2  Y    0.000000   0.000000   0.000000   0.785719   0.000000
   18  N  2  Z    0.100189  -0.104542   0.718763   0.000000   0.000000

                     16         17         18
                    0.0057     0.0057     0.0049
                     B2         B1         A1  
    1  N  1  S    0.000000   0.000000   0.012389
    2  N  1  S    0.000000   0.000000  -0.210513
    3  N  1  S    0.000000   0.000000   0.240380
    4  N  1  X    0.000000  -0.618242   0.000000
    5  N  1  Y   -0.618242   0.000000   0.000000
    6  N  1  Z    0.000000   0.000000  -0.627270
    7  N  1  X    0.000000   0.816070   0.000000
    8  N  1  Y    0.816070   0.000000   0.000000
    9  N  1  Z    0.000000   0.000000   0.903662
   10  N  2  S    0.000000   0.000000  -0.012389
   11  N  2  S    0.000000   0.000000   0.210513
   12  N  2  S    0.000000   0.000000  -0.240380
   13  N  2  X    0.000000   0.618242   0.000000
   14  N  2  Y    0.618242   0.000000   0.000000
   15  N  2  Z    0.000000   0.000000  -0.627270
   16  N  2  X    0.000000  -0.816070   0.000000
   17  N  2  Y   -0.816070   0.000000   0.000000
   18  N  2  Z    0.000000   0.000000   0.903662
 ..... DONE WITH ONE PARTICLE DENSITY MATRIX .....
 CPU     0: STEP CPU TIME=     0.98 TOTAL CPU TIME=      132.2 (    2.2 MIN)
 TOTAL WALL CLOCK TIME=      170.5 SECONDS, CPU UTILIZATION IS  77.56%

     --------------------------------------------------------
     ALDET CI PROPERTIES...FOR THE WAVEFUNCTION OF STATE    1
               USING THE EXPECTATION VALUE DENSITY
     --------------------------------------------------------

          -----------------
          ENERGY COMPONENTS
          -----------------

         WAVEFUNCTION NORMALIZATION =       1.0000000000

                ONE ELECTRON ENERGY =    -162.4853472427
                TWO ELECTRON ENERGY =      46.2197826759
           NUCLEAR REPULSION ENERGY =       7.4084814894
                                      ------------------
                       TOTAL ENERGY =    -108.8570830774

 ELECTRON-ELECTRON POTENTIAL ENERGY =      46.2197826759
  NUCLEUS-ELECTRON POTENTIAL ENERGY =    -271.1960504713
   NUCLEUS-NUCLEUS POTENTIAL ENERGY =       7.4084814894
                                      ------------------
             TOTAL POTENTIAL ENERGY =    -217.5677863060
               TOTAL KINETIC ENERGY =     108.7107032286
                 VIRIAL RATIO (V/T) =       2.0013465082

          ---------------------------------------
          MULLIKEN AND LOWDIN POPULATION ANALYSES
          ---------------------------------------

               ----- POPULATIONS IN EACH AO -----
                             MULLIKEN      LOWDIN
              1  N  1  S      2.00013     1.99633
              2  N  1  S      0.98062     0.98301
              3  N  1  S      1.01469     1.01575
              4  N  1  X      0.75977     0.72080
              5  N  1  Y      0.75977     0.72080
              6  N  1  Z      0.75919     0.72015
              7  N  1  X      0.24164     0.28061
              8  N  1  Y      0.24164     0.28061
              9  N  1  Z      0.24255     0.28193
             10  N  2  S      2.00013     1.99633
             11  N  2  S      0.98062     0.98301
             12  N  2  S      1.01469     1.01575
             13  N  2  X      0.75977     0.72080
             14  N  2  Y      0.75977     0.72080
             15  N  2  Z      0.75919     0.72015
             16  N  2  X      0.24164     0.28061
             17  N  2  Y      0.24164     0.28061
             18  N  2  Z      0.24255     0.28193

          ----- MULLIKEN ATOMIC OVERLAP POPULATIONS -----
          (OFF-DIAGONAL ELEMENTS NEED TO BE MULTIPLIED BY 2)

             1           2

    1    6.9980698
    2    0.0019302   6.9980698

          TOTAL MULLIKEN AND LOWDIN ATOMIC POPULATIONS
       ATOM         MULL.POP.    CHARGE          LOW.POP.     CHARGE
    1 N             7.000000    0.000000         7.000000    0.000000
    2 N             7.000000    0.000000         7.000000    0.000000

          ---------------------
          ELECTROSTATIC MOMENTS
          ---------------------

 POINT   1           X           Y           Z (BOHR)    CHARGE
                 0.000000    0.000000    3.307020        0.00 (A.U.)
         DX          DY          DZ         /D/  (DEBYE)
     0.000000    0.000000    0.000000    0.000000
 ...... END OF PROPERTY EVALUATION ......
 CPU     0: STEP CPU TIME=     0.01 TOTAL CPU TIME=      132.2 (    2.2 MIN)
 TOTAL WALL CLOCK TIME=      170.9 SECONDS, CPU UTILIZATION IS  77.35%
             119866847  WORDS OF DYNAMIC MEMORY USED
 EXECUTION OF GAMESS TERMINATED NORMALLY Thu Jan 17 18:38:48 2019
 DDI: 305760 bytes (0.3 MB / 0 MWords) used by master data server.

 ----------------------------------------
 CPU timing information for all processes
 ========================================
 0: 124.44 + 8.324 = 132.368
 1: 122.968 + 10.712 = 133.680
 2: 122.860 + 9.692 = 132.552
 3: 123.80 + 10.40 = 133.120
 4: 123.388 + 10.72 = 133.460
 5: 123.624 + 8.444 = 132.68
 6: 121.308 + 9.836 = 131.144
 7: 123.44 + 8.968 = 132.12
 8: 122.684 + 7.296 = 129.980
 9: 122.388 + 8.936 = 131.324
 10: 122.640 + 9.136 = 131.776
 11: 123.284 + 8.280 = 131.564
 12: 0.500 + 5.120 = 5.620
 13: 0.08 + 0.00 = 0.08
 14: 0.00 + 0.08 = 0.08
 15: 0.00 + 0.04 = 0.04
 16: 0.00 + 0.04 = 0.04
 17: 0.00 + 0.04 = 0.04
 18: 0.04 + 0.00 = 0.04
 19: 0.04 + 0.00 = 0.04
 20: 0.00 + 0.04 = 0.04
 21: 0.08 + 0.00 = 0.08
 22: 0.00 + 0.04 = 0.04
 23: 0.04 + 0.04 = 0.08
 ----------------------------------------
 ddikick.x: exited gracefully.
unset echo
----- accounting info -----
Files used on the master node localhost were:
-rw-rw-r-- 1 maho maho    13429 Jan 17 18:38 ./N2.SV/3.5/N2.SV.fullCI.3.5.gamess.dat
-rw------- 1 maho maho     1813 Jan 17 18:35 ./N2.SV/3.5/N2.SV.fullCI.3.5.gamess.F05
-rw-rw-r-- 1 maho maho   180016 Jan 17 18:35 ./N2.SV/3.5/N2.SV.fullCI.3.5.gamess.F08
-rw-rw-r-- 1 maho maho     1376 Jan 17 18:35 ./N2.SV/3.5/N2.SV.fullCI.3.5.gamess.F09
-rw-rw-r-- 1 maho maho  1865040 Jan 17 18:38 ./N2.SV/3.5/N2.SV.fullCI.3.5.gamess.F10
-rw-rw-r-- 1 maho maho 38216480 Jan 17 18:38 ./N2.SV/3.5/N2.SV.fullCI.3.5.gamess.F12
-rw------- 1 maho maho     1813 Jan 17 18:35 ./N2.SV/3.5/N2.SV.fullCI.3.5.gamess.inp
-rw-rw-r-- 1 maho maho    49268 Jan 17 18:38 ./N2.SV/3.5/N2.SV.fullCI.3.5.gamess.log
ls: No match.
ls: No match.
ls: No match.
Thu Jan 17 18:38:51 JST 2019
0.0u 0.0s 2:54.40 0.0% 0+0k 0+8io 0pf+0w
