----- GAMESS execution script 'rungms' -----
This job is running on host bach.ad64.riken.go.jp
under operating system Darwin at 2019年 1月17日 木曜日 17時52分32秒 JST
Available scratch disk space (Kbyte units) at beginning of the job is
Filesystem   1024-blocks       Used Available Capacity iused      ifree %iused  Mounted on
/dev/disk2s2  1953178672 1144745800 808432872    59%  984600 4293982679    0%   /Volumes/Users
GAMESS temporary binary files will be written to ./
GAMESS supplementary output files will be written to ./
Copying input file LiH.631g/4.4/LiH.631g.CCSDT.4.4.gamess.inp to your run's scratch directory...
cp LiH.631g/4.4/LiH.631g.CCSDT.4.4.gamess.inp .//LiH.631g/4.4/LiH.631g.CCSDT.4.4.gamess.F05
unset echo
/Volumes/Users/maho/bin/gamess//ddikick.x /Volumes/Users/maho/bin/gamess//gamess.00.x LiH.631g/4.4/LiH.631g.CCSDT.4.4.gamess -ddi 1 1 bach.ad64.riken.go.jp -scr ./

 Distributed Data Interface kickoff program.
 Initiating 1 compute processes on 1 nodes to run the following command:
 /Volumes/Users/maho/bin/gamess//gamess.00.x LiH.631g/4.4/LiH.631g.CCSDT.4.4.gamess 

          ******************************************************
          *         GAMESS VERSION = 18 AUG 2016 (R1)          *
          *             FROM IOWA STATE UNIVERSITY             *
          * M.W.SCHMIDT, K.K.BALDRIDGE, J.A.BOATZ, S.T.ELBERT, *
          *   M.S.GORDON, J.H.JENSEN, S.KOSEKI, N.MATSUNAGA,   *
          *          K.A.NGUYEN, S.J.SU, T.L.WINDUS,           *
          *       TOGETHER WITH M.DUPUIS, J.A.MONTGOMERY       *
          *         J.COMPUT.CHEM.  14, 1347-1363(1993)        *
          **************** 64 BIT APPLE VERSION ****************

  SINCE 1993, STUDENTS AND POSTDOCS WORKING AT IOWA STATE UNIVERSITY
  AND ALSO IN THEIR VARIOUS JOBS AFTER LEAVING ISU HAVE MADE IMPORTANT
  CONTRIBUTIONS TO THE CODE:
     IVANA ADAMOVIC, CHRISTINE AIKENS, YURI ALEXEEV, POOJA ARORA,
     ANDREY ASADCHEV, ROB BELL, PRADIPTA BANDYOPADHYAY, JONATHAN BENTZ,
     BRETT BODE, KURT BRORSEN, CALEB CARLIN, GALINA CHABAN, WEI CHEN,
     CHEOL HO CHOI, PAUL DAY, ALBERT DEFUSCO, NUWAN DESILVA, TIM DUDLEY,
     DMITRI FEDOROV, GRAHAM FLETCHER, MARK FREITAG, KURT GLAESEMANN,
     DAN KEMP, GRANT MERRILL, NORIYUKI MINEZAWA, JONATHAN MULLIN,
     TAKESHI NAGATA, SEAN NEDD, HEATHER NETZLOFF, BOSILJKA NJEGIC, RYAN OLSON,
     MIKE PAK, SPENCER PRUITT, LUKE ROSKOP, JIM SHOEMAKER, LYUDMILA SLIPCHENKO,
     TONY SMITH, SAROM SOK LEANG, JIE SONG, TETSUYA TAKETSUGU, SIMON WEBB,
     PENG XU, SOOHAENG YOO, FEDERICO ZAHARIEV

  ADDITIONAL CODE HAS BEEN PROVIDED BY COLLABORATORS IN OTHER GROUPS:
     IOWA STATE UNIVERSITY:
          JOE IVANIC, AARON WEST, LAIMUTIS BYTAUTAS, KLAUS RUEDENBERG
     UNIVERSITY OF TOKYO: KIMIHIKO HIRAO, TAKAHITO NAKAJIMA,
          TAKAO TSUNEDA, MUNEAKI KAMIYA, SUSUMU YANAGISAWA,
          KIYOSHI YAGI, MAHITO CHIBA, SEIKEN TOKURA, NAOAKI KAWAKAMI
     UNIVERSITY OF AARHUS: FRANK JENSEN
     UNIVERSITY OF IOWA: VISVALDAS KAIRYS, HUI LI
     NATIONAL INST. OF STANDARDS AND TECHNOLOGY: WALT STEVENS, DAVID GARMER
     UNIVERSITY OF PISA: BENEDETTA MENNUCCI, JACOPO TOMASI
     UNIVERSITY OF MEMPHIS: HENRY KURTZ, PRAKASHAN KORAMBATH
     UNIVERSITY OF ALBERTA: TOBY ZENG, MARIUSZ KLOBUKOWSKI
     UNIVERSITY OF NEW ENGLAND: MARK SPACKMAN
     MIE UNIVERSITY: HIROAKI UMEDA
     NAT. INST. OF ADVANCED INDUSTRIAL SCIENCE AND TECHNOLOGY: KAZUO KITAURA
     MICHIGAN STATE UNIVERSITY:
          KAROL KOWALSKI, MARTA WLOCH, JEFFREY GOUR, JESSE LUTZ,
          WEI LI, PIOTR PIECUCH
     UNIVERSITY OF SILESIA: MONIKA MUSIAL, STANISLAW KUCHARSKI
     FACULTES UNIVERSITAIRES NOTRE-DAME DE LA PAIX:
          OLIVIER QUINET, BENOIT CHAMPAGNE
     UNIVERSITY OF CALIFORNIA - SANTA BARBARA: BERNARD KIRTMAN
     INSTITUTE FOR MOLECULAR SCIENCE:
          KAZUYA ISHIMURA, MICHIO KATOUDA, AND SHIGERU NAGASE
     UNIVERSITY OF NOTRE DAME: ANNA POMOGAEVA, DAN CHIPMAN
     KYUSHU UNIVERSITY:
          HARUYUKI NAKANO,
          FENG LONG GU, JACEK KORCHOWIEC, MARCIN MAKOWSKI, AND YURIKO AOKI,
          HIROTOSHI MORI AND EISAKU MIYOSHI
     PENNSYLVANIA STATE UNIVERSITY:
          TZVETELIN IORDANOV, CHET SWALINA, JONATHAN SKONE,
          SHARON HAMMES-SCHIFFER
     WASEDA UNIVERSITY:
          MASATO KOBAYASHI, TOMOKO AKAMA, TSUGUKI TOUMA,
          TAKESHI YOSHIKAWA, YASUHIRO IKABATA, JUNJI SEINO,
          YUYA NAKAJIMA, HIROMI NAKAI
     NANJING UNIVERSITY: SHUHUA LI
     UNIVERSITY OF NEBRASKA:
          PEIFENG SU, DEJUN SI, NANDUN THELLAMUREGE, YALI WANG, HUI LI
     UNIVERSITY OF ZURICH: ROBERTO PEVERATI, KIM BALDRIDGE
     N. COPERNICUS UNIVERSITY AND JACKSON STATE UNIVERSITY:
          MARIA BARYSZ
     UNIVERSITY OF COPENHAGEN: Jimmy Kromann, CASPER STEINMANN
     TOKYO INSTITUTE OF TECHNOLOGY: HIROYA NAKATA
     NAGOYA UNIVERSITY: YOSHIO NISHIMOTO, STEPHAN IRLE
     MOSCOW STATE UNIVERSITY: VLADIMIR MIRONOV

 EXECUTION OF GAMESS BEGUN Thu Jan 17 17:52:32 2019

            ECHO OF THE FIRST FEW INPUT CARDS -
 INPUT CARD> $CONTRL MULT=1 SCFTYP=RHF CCTYP=CCSD(T) $END                                   
 INPUT CARD> $BASIS GBASIS=N31 NGAUSS=6 NDFUNC=1 NPFUNC=1 $END                              
 INPUT CARD> $CCINP NCORE=0 $END                                                            
 INPUT CARD> $GUESS GUESS=HUCKEL $END                                                       
 INPUT CARD> $DATA                                                                          
 INPUT CARD>LiH...HF...6-31G* basis                                                         
 INPUT CARD>Cnv   2                                                                         
 INPUT CARD>                                                                                
 INPUT CARD>Li    3.0    0.0      0.0     0.0                                               
 INPUT CARD>H     1.0    0.0      0.0     4.4                                               
 INPUT CARD> $END                                                                           
    1000000 WORDS OF MEMORY AVAILABLE

     BASIS OPTIONS
     -------------
     GBASIS=N31          IGAUSS=       6      POLAR=POPN31  
     NDFUNC=       1     NFFUNC=       0     DIFFSP=       F
     NPFUNC=       1      DIFFS=       F     BASNAM=        


     RUN TITLE
     ---------
 LiH...HF...6-31G* basis                                                         

 THE POINT GROUP OF THE MOLECULE IS CNV     
 THE ORDER OF THE PRINCIPAL AXIS IS     2

 ATOM      ATOMIC                      COORDINATES (BOHR)
           CHARGE         X                   Y                   Z
 LI          3.0     0.0000000000        0.0000000000        0.0000000000
 H           1.0     0.0000000000        0.0000000000        8.3147943460

          INTERNUCLEAR DISTANCES (ANGS.)
          ------------------------------

                1 LI         2 H     

   1 LI      0.0000000    4.4000000  
   2 H       4.4000000    0.0000000  

  * ... LESS THAN  3.000


     ATOMIC BASIS SET
     ----------------
 THE CONTRACTED PRIMITIVE FUNCTIONS HAVE BEEN UNNORMALIZED
 THE CONTRACTED BASIS FUNCTIONS ARE NOW NORMALIZED TO UNITY

  SHELL TYPE  PRIMITIVE        EXPONENT          CONTRACTION COEFFICIENT(S)

 LI        

      1   S       1           642.4189150    0.002142607810
      1   S       2            96.7985153    0.016208871501
      1   S       3            22.0911212    0.077315572504
      1   S       4             6.2010702    0.245786052013
      1   S       5             1.9351177    0.470189004025
      1   S       6             0.6367358    0.345470845019

      2   L       7             2.3249184   -0.035091745735    0.008941508043
      2   L       8             0.6324304   -0.191232843103    0.141009464046
      2   L       9             0.0790534    1.083987794916    0.945363695309

      3   L      10             0.0359620    1.000000000000    1.000000000000

      4   D      11             0.2000000    1.000000000000

 H         

      5   S      12            18.7311370    0.033494604338
      5   S      13             2.8253944    0.234726953484
      5   S      14             0.6401217    0.813757326146

      6   S      15             0.1612778    1.000000000000

      7   P      16             1.1000000    1.000000000000

 TOTAL NUMBER OF BASIS SET SHELLS             =    7
 NUMBER OF CARTESIAN GAUSSIAN BASIS FUNCTIONS =   20
 NUMBER OF ELECTRONS                          =    4
 CHARGE OF MOLECULE                           =    0
 SPIN MULTIPLICITY                            =    1
 NUMBER OF OCCUPIED ORBITALS (ALPHA)          =    2
 NUMBER OF OCCUPIED ORBITALS (BETA )          =    2
 TOTAL NUMBER OF ATOMS                        =    2
 THE NUCLEAR REPULSION ENERGY IS        0.3608026699

 THIS MOLECULE IS RECOGNIZED AS BEING LINEAR,
 ORBITAL LZ DEGENERACY TOLERANCE ETOLLZ= 1.00E-06

     $CONTRL OPTIONS
     ---------------
 SCFTYP=RHF          RUNTYP=ENERGY       EXETYP=RUN     
 MPLEVL=       0     CITYP =NONE         CCTYP =CCSD(T)      VBTYP =NONE    
 DFTTYP=NONE         TDDFT =NONE    
 MULT  =       1     ICHARG=       0     NZVAR =       0     COORD =UNIQUE  
 PP    =NONE         RELWFN=NONE         LOCAL =NONE         NUMGRD=       F
 ISPHER=      -1     NOSYM =       0     MAXIT =      30     UNITS =ANGS    
 PLTORB=       F     MOLPLT=       F     AIMPAC=       F     FRIEND=        
 NPRINT=       7     IREST =       0     GEOM  =INPUT   
 NORMF =       0     NORMP =       0     ITOL  =      20     ICUT  =       9
 INTTYP=BEST         GRDTYP=BEST         QMTTOL= 1.0E-06

     $SYSTEM OPTIONS
     ---------------
  REPLICATED MEMORY=     1000000 WORDS (ON EVERY NODE).
 DISTRIBUTED MEMDDI=           0 MILLION WORDS IN AGGREGATE,
 MEMDDI DISTRIBUTED OVER   1 PROCESSORS IS           0 WORDS/PROCESSOR.
 TOTAL MEMORY REQUESTED ON EACH PROCESSOR=     1000000 WORDS.
 TIMLIM=      525600.00 MINUTES, OR     365.0 DAYS.
 PARALL= F  BALTYP=  DLB     KDIAG=    0  COREFL= F
 MXSEQ2=     300 MXSEQ3=     150  mem10=         0

          ----------------
          PROPERTIES INPUT
          ----------------

     MOMENTS            FIELD           POTENTIAL          DENSITY
 IEMOM =       1   IEFLD =       0   IEPOT =       0   IEDEN =       0
 WHERE =COMASS     WHERE =NUCLEI     WHERE =NUCLEI     WHERE =NUCLEI  
 OUTPUT=BOTH       OUTPUT=BOTH       OUTPUT=BOTH       OUTPUT=BOTH    
 IEMINT=       0   IEFINT=       0                     IEDINT=       0
                                                       MORB  =       0
          EXTRAPOLATION IN EFFECT
          SOSCF IN EFFECT
 ORBITAL PRINTING OPTION: NPREO=     1    20     2     1

     -------------------------------
     INTEGRAL TRANSFORMATION OPTIONS
     -------------------------------
     NWORD  =            0
     CUTOFF = 1.0E-09     MPTRAN =       0
     DIRTRF =       F     AOINTS =DUP     

          ----------------------
          INTEGRAL INPUT OPTIONS
          ----------------------
 NOPK  =       1 NORDER=       0 SCHWRZ=       F

     ------------------------------------------
     THE POINT GROUP IS CNV, NAXIS= 2, ORDER= 4
     ------------------------------------------

     DIMENSIONS OF THE SYMMETRY SUBSPACES ARE
 A1  =   11     A2  =    1     B1  =    4     B2  =    4

 ..... DONE SETTING UP THE RUN .....
 STEP CPU TIME =     0.00 TOTAL CPU TIME =        0.0 (    0.0 MIN)
 TOTAL WALL CLOCK TIME=        0.0 SECONDS, CPU UTILIZATION IS   0.00%

          ********************
          1 ELECTRON INTEGRALS
          ********************
 ...... END OF ONE-ELECTRON INTEGRALS ......
 STEP CPU TIME =     0.00 TOTAL CPU TIME =        0.0 (    0.0 MIN)
 TOTAL WALL CLOCK TIME=        0.0 SECONDS, CPU UTILIZATION IS   0.00%

          -------------
          GUESS OPTIONS
          -------------
          GUESS =HUCKEL            NORB  =       0          NORDER=       0
          MIX   =       F          PRTMO =       F          PUNMO =       F
          TOLZ  = 1.0E-08          TOLE  = 1.0E-05
          SYMDEN=       F          PURIFY=       F

 INITIAL GUESS ORBITALS GENERATED BY HUCKEL   ROUTINE.
 HUCKEL GUESS REQUIRES      4469 WORDS.

 SYMMETRIES FOR INITIAL GUESS ORBITALS FOLLOW.   BOTH SET(S).
     2 ORBITALS ARE OCCUPIED (    1 CORE ORBITALS).
     2=A1       3=A1       4=A1       5=A1       6=A1       7=A1       8=A1  
     9=A1      10=A1      11=A1      12=A2  
 ...... END OF INITIAL ORBITAL SELECTION ......
 STEP CPU TIME =     0.00 TOTAL CPU TIME =        0.0 (    0.0 MIN)
 TOTAL WALL CLOCK TIME=        0.0 SECONDS, CPU UTILIZATION IS   0.00%

                    ----------------------
                    AO INTEGRAL TECHNOLOGY
                    ----------------------
     S,P,L SHELL ROTATED AXIS INTEGRALS, REPROGRAMMED BY
        KAZUYA ISHIMURA (IMS) AND JOSE SIERRA (SYNSTAR).
     S,P,D,L SHELL ROTATED AXIS INTEGRALS PROGRAMMED BY
        KAZUYA ISHIMURA (INSTITUTE FOR MOLECULAR SCIENCE).
     S,P,D,F,G SHELL TO TOTAL QUARTET ANGULAR MOMENTUM SUM 5,
        ERIC PROGRAM BY GRAHAM FLETCHER (ELORET AND NASA ADVANCED
        SUPERCOMPUTING DIVISION, AMES RESEARCH CENTER).
     S,P,D,F,G,L SHELL GENERAL RYS QUADRATURE PROGRAMMED BY
        MICHEL DUPUIS (PACIFIC NORTHWEST NATIONAL LABORATORY).

          --------------------
          2 ELECTRON INTEGRALS
          --------------------

 THE -PK- OPTION IS OFF, THE INTEGRALS ARE NOT IN SUPERMATRIX FORM.
 STORING   15000 INTEGRALS/RECORD ON DISK, USING 12 BYTES/INTEGRAL.
 TWO ELECTRON INTEGRAL EVALUATION REQUIRES   90424 WORDS OF MEMORY.
 II,JST,KST,LST =  1  1  1  1 NREC =         1 INTLOC =    1
 II,JST,KST,LST =  2  1  1  1 NREC =         1 INTLOC =    2
 II,JST,KST,LST =  3  1  1  1 NREC =         1 INTLOC =   34
 II,JST,KST,LST =  4  1  1  1 NREC =         1 INTLOC =  214
 II,JST,KST,LST =  5  1  1  1 NREC =         1 INTLOC = 1189
 II,JST,KST,LST =  6  1  1  1 NREC =         1 INTLOC = 1800
 II,JST,KST,LST =  7  1  1  1 NREC =         1 INTLOC = 2633
 TOTAL NUMBER OF NONZERO TWO-ELECTRON INTEGRALS =                5151
          1 INTEGRAL RECORDS WERE STORED ON DISK FILE  8.
  ...... END OF TWO-ELECTRON INTEGRALS .....
 STEP CPU TIME =     0.02 TOTAL CPU TIME =        0.0 (    0.0 MIN)
 TOTAL WALL CLOCK TIME=        0.0 SECONDS, CPU UTILIZATION IS  66.67%

          --------------------------
                 RHF SCF CALCULATION
          --------------------------

     NUCLEAR ENERGY =         0.3608026699
     MAXIT =   30     NPUNCH=    2
     EXTRAP=T  DAMP=F  SHIFT=F  RSTRCT=F  DIIS=F  DEM=F  SOSCF=T
     DENSITY MATRIX CONV=  1.00E-06
     SOSCF WILL OPTIMIZE      36 ORBITAL ROTATIONS, SOGTOL=   0.250
     MEMORY REQUIRED FOR RHF ITERS=     33224 WORDS.

 ITER EX DEM     TOTAL ENERGY        E CHANGE  DENSITY CHANGE     ORB. GRAD
   1  0  0       -7.5017257526    -7.5017257526   1.089890416   0.000000000
          ---------------START SECOND ORDER SCF---------------
 SOSCF IS SCALING ROTATION ANGLE MATRIX, SQCDF=    0.118903
   2  1  0       -7.4574257947     0.0442999579   0.642292098   0.063859444
 SOSCF IS SCALING ROTATION ANGLE MATRIX, SQCDF=    0.655844
   3  2  0       -7.6005911337    -0.1431653390   1.007048432   0.106223786
   4  3  0       -7.7223725953    -0.1217814616   0.539842265   0.101407912
   5  4  0       -7.7921638376    -0.0697912424   0.342612849   0.047069179
   6  5  0       -7.8322219282    -0.0400580906   0.281055731   0.011313162
   7  6  0       -7.8383309844    -0.0061090562   0.134882965   0.021054304
   8  7  0       -7.8416466446    -0.0033156601   0.054400275   0.004201389
   9  8  0       -7.8422208157    -0.0005741711   0.033354238   0.002555016
  10  9  0       -7.8422561111    -0.0000352954   0.008441763   0.000392243
  11 10  0       -7.8422593951    -0.0000032840   0.000311484   0.000137289
  12 11  0       -7.8422594567    -0.0000000617   0.000068636   0.000024195
  13 12  0       -7.8422594581    -0.0000000014   0.000010108   0.000001520
  14 13  0       -7.8422594582    -0.0000000000   0.000001493   0.000000149
  15 14  0       -7.8422594582    -0.0000000000   0.000000000   0.000000007

 RHF HAS CONVERGED, NOW COMPUTING EXACT TOTAL FOCK MATRIX
 FOR USE DURING THE COUPLED CLUSTER CALCULATION THAT FOLLOWS.

          -----------------
          DENSITY CONVERGED
          -----------------
     TIME TO FORM FOCK OPERATORS=       0.0 SECONDS (       0.0 SEC/ITER)
     TIME TO SOLVE SCF EQUATIONS=       0.0 SECONDS (       0.0 SEC/ITER)

 FINAL RHF ENERGY IS       -7.8422594582 AFTER  15 ITERATIONS

 LZ VALUE ANALYSIS FOR THE MOS
 ----------------------------------------
 MO     1 (    1) HAS LZ(WEIGHT)= 0.00(100.0%) 
 MO     2 (    2) HAS LZ(WEIGHT)= 0.00(100.0%) 
 MO     3 (    3) HAS LZ(WEIGHT)= 0.00(100.0%) 
 MO     4 (    4) HAS LZ(WEIGHT)=-1.00( 50.0%)  1.00( 50.0%) 
 MO     5 (    4) HAS LZ(WEIGHT)=-1.00( 50.0%)  1.00( 50.0%) 
 MO     6 (    5) HAS LZ(WEIGHT)= 0.00(100.0%) 
 MO     7 (    6) HAS LZ(WEIGHT)= 0.00(100.0%) 
 MO     8 (    7) HAS LZ(WEIGHT)=-1.00( 50.0%)  1.00( 50.0%) 
 MO     9 (    7) HAS LZ(WEIGHT)=-1.00( 50.0%)  1.00( 50.0%) 
 MO    10 (    8) HAS LZ(WEIGHT)= 0.00(100.0%) 
 MO    11 (    9) HAS LZ(WEIGHT)=-2.00( 50.0%)  2.00( 50.0%) 
 MO    12 (    9) HAS LZ(WEIGHT)=-2.00( 50.0%)  2.00( 50.0%) 
 MO    13 (   10) HAS LZ(WEIGHT)=-1.00( 50.0%)  1.00( 50.0%) 
 MO    14 (   10) HAS LZ(WEIGHT)=-1.00( 50.0%)  1.00( 50.0%) 
 MO    15 (   11) HAS LZ(WEIGHT)= 0.00(100.0%) 
 MO    16 (   12) HAS LZ(WEIGHT)= 0.00(100.0%) 
 MO    17 (   13) HAS LZ(WEIGHT)= 0.00(100.0%) 
 MO    18 (   14) HAS LZ(WEIGHT)=-1.00( 50.0%)  1.00( 50.0%) 
 MO    19 (   14) HAS LZ(WEIGHT)=-1.00( 50.0%)  1.00( 50.0%) 
 MO    20 (   15) HAS LZ(WEIGHT)= 0.00(100.0%) 

          ------------
          EIGENVECTORS
          ------------

                      1          2          3          4          5
                   -2.5845    -0.1861    -0.0484     0.0219     0.0219
                     A1         A1         A1         B2         B1  
    1  LI 1  S    0.998765  -0.092941  -0.161541  -0.000000  -0.000000
    2  LI 1  S   -0.012290  -0.071465   0.089020  -0.000000  -0.000000
    3  LI 1  X    0.000000  -0.000000  -0.000000  -0.000000   0.237793
    4  LI 1  Y    0.000000  -0.000000  -0.000000   0.237793  -0.000000
    5  LI 1  Z   -0.002563  -0.018010  -0.088295  -0.000000  -0.000000
    6  LI 1  S    0.001940   0.486303   0.710359  -0.000000  -0.000000
    7  LI 1  X    0.000000  -0.000000  -0.000000  -0.000000   0.798821
    8  LI 1  Y    0.000000  -0.000000  -0.000000   0.798821  -0.000000
    9  LI 1  Z    0.001738   0.216500  -0.308576  -0.000000  -0.000000
   10  LI 1 XX    0.008794   0.028857   0.036394  -0.000000  -0.000000
   11  LI 1 YY    0.008794   0.028857   0.036394  -0.000000  -0.000000
   12  LI 1 ZZ    0.008670   0.041468   0.033584  -0.000000  -0.000000
   13  LI 1 XY    0.000000  -0.000000  -0.000000  -0.000000  -0.000000
   14  LI 1 XZ    0.000000  -0.000000  -0.000000  -0.000000  -0.024853
   15  LI 1 YZ    0.000000  -0.000000  -0.000000  -0.024853  -0.000000
   16  H  2  S    0.000048   0.239711  -0.109120  -0.000000  -0.000000
   17  H  2  S   -0.000204   0.603912  -0.283049  -0.000000  -0.000000
   18  H  2  X    0.000000  -0.000000  -0.000000  -0.000000   0.000934
   19  H  2  Y    0.000000  -0.000000  -0.000000   0.000934  -0.000000
   20  H  2  Z    0.000005  -0.001142  -0.000856  -0.000000  -0.000000

                      6          7          8          9         10
                    0.0535     0.1490     0.1657     0.1657     0.2135
                     A1         A1         B1         B2         A1  
    1  LI 1  S   -0.037795   0.059159  -0.000000  -0.000000   0.063026
    2  LI 1  S    0.505346   2.325549  -0.000000  -0.000000   2.229710
    3  LI 1  X   -0.000000  -0.000000   1.655981  -0.000000   0.000000
    4  LI 1  Y   -0.000000  -0.000000  -0.000000   1.655981   0.000000
    5  LI 1  Z    0.298001  -1.172015  -0.000000  -0.000000   1.200445
    6  LI 1  S   -0.154364  -1.815546  -0.000000  -0.000000  -1.782850
    7  LI 1  X   -0.000000  -0.000000  -1.471077  -0.000000   0.000000
    8  LI 1  Y   -0.000000  -0.000000  -0.000000  -1.471077   0.000000
    9  LI 1  Z    0.651416   0.981667  -0.000000  -0.000000  -1.236227
   10  LI 1 XX   -0.007131  -0.230399  -0.000000  -0.000000  -0.183954
   11  LI 1 YY   -0.007131  -0.230399  -0.000000  -0.000000  -0.183954
   12  LI 1 ZZ   -0.075516  -0.185806  -0.000000  -0.000000  -0.217229
   13  LI 1 XY   -0.000000  -0.000000  -0.000000  -0.000000   0.000000
   14  LI 1 XZ   -0.000000  -0.000000  -0.037649  -0.000000   0.000000
   15  LI 1 YZ   -0.000000  -0.000000  -0.000000  -0.037649   0.000000
   16  H  2  S   -0.107026   0.013327  -0.000000  -0.000000   0.048245
   17  H  2  S   -0.397838  -0.024991  -0.000000  -0.000000   0.333281
   18  H  2  X   -0.000000  -0.000000  -0.000953  -0.000000   0.000000
   19  H  2  Y   -0.000000  -0.000000  -0.000000  -0.000953   0.000000
   20  H  2  Z   -0.003075   0.001139  -0.000000  -0.000000   0.002169

                     11         12         13         14         15
                    0.4986     0.4986     0.5035     0.5035     0.5063
                     A1         A2         B2         B1         A1  
    1  LI 1  S    0.000000   0.000000  -0.000000  -0.000000  -0.001154
    2  LI 1  S    0.000000   0.000000  -0.000000  -0.000000   0.031972
    3  LI 1  X    0.000000   0.000000  -0.000000   0.068329   0.000000
    4  LI 1  Y    0.000000   0.000000   0.068329  -0.000000   0.000000
    5  LI 1  Z    0.000000   0.000000  -0.000000  -0.000000   0.073814
    6  LI 1  S    0.000000   0.000000  -0.000000  -0.000000  -0.004142
    7  LI 1  X    0.000000   0.000000  -0.000000  -0.035572   0.000000
    8  LI 1  Y    0.000000   0.000000  -0.035572  -0.000000   0.000000
    9  LI 1  Z    0.000000   0.000000  -0.000000  -0.000000  -0.028147
   10  LI 1 XX    0.866025   0.000000  -0.000000  -0.000000  -0.507658
   11  LI 1 YY   -0.866025   0.000000  -0.000000  -0.000000  -0.507658
   12  LI 1 ZZ    0.000000   0.000000  -0.000000  -0.000000   0.989010
   13  LI 1 XY    0.000000   1.000000  -0.000000  -0.000000   0.000000
   14  LI 1 XZ    0.000000   0.000000  -0.000000   0.998982   0.000000
   15  LI 1 YZ    0.000000   0.000000   0.998982  -0.000000   0.000000
   16  H  2  S    0.000000   0.000000  -0.000000  -0.000000  -0.036529
   17  H  2  S    0.000000   0.000000  -0.000000  -0.000000  -0.001453
   18  H  2  X    0.000000   0.000000  -0.000000   0.000245   0.000000
   19  H  2  Y    0.000000   0.000000   0.000245  -0.000000   0.000000
   20  H  2  Z    0.000000   0.000000  -0.000000  -0.000000  -0.001270

                     16         17         18         19         20
                    1.1514     1.1929     2.4660     2.4660     2.4702
                     A1         A1         B2         B1         A1  
    1  LI 1  S    0.102667   0.058133  -0.000000  -0.000000  -0.004933
    2  LI 1  S    8.745604   3.713889  -0.000000  -0.000000  -0.129565
    3  LI 1  X    0.000000  -0.000000  -0.000000   0.013168  -0.000000
    4  LI 1  Y    0.000000  -0.000000   0.013168  -0.000000  -0.000000
    5  LI 1  Z   -0.014980   0.137563  -0.000000  -0.000000  -0.036042
    6  LI 1  S   -2.673795  -1.321781  -0.000000  -0.000000   0.084665
    7  LI 1  X    0.000000  -0.000000  -0.000000  -0.018160  -0.000000
    8  LI 1  Y    0.000000  -0.000000  -0.018160  -0.000000  -0.000000
    9  LI 1  Z    0.039272  -0.238894  -0.000000  -0.000000   0.061612
   10  LI 1 XX   -2.926742  -1.157407  -0.000000  -0.000000   0.025913
   11  LI 1 YY   -2.926742  -1.157407  -0.000000  -0.000000   0.025913
   12  LI 1 ZZ   -2.913494  -1.208659  -0.000000  -0.000000   0.028677
   13  LI 1 XY    0.000000  -0.000000  -0.000000  -0.000000  -0.000000
   14  LI 1 XZ    0.000000  -0.000000  -0.000000  -0.000281  -0.000000
   15  LI 1 YZ    0.000000  -0.000000  -0.000281  -0.000000  -0.000000
   16  H  2  S    0.459474  -1.227810  -0.000000  -0.000000   0.012971
   17  H  2  S   -0.320486   1.097052  -0.000000  -0.000000  -0.026252
   18  H  2  X    0.000000  -0.000000  -0.000000   1.000045  -0.000000
   19  H  2  Y    0.000000  -0.000000   1.000045  -0.000000  -0.000000
   20  H  2  Z   -0.001608   0.003939  -0.000000  -0.000000   1.000761
 ...... END OF RHF CALCULATION ......
 STEP CPU TIME =     0.01 TOTAL CPU TIME =        0.0 (    0.0 MIN)
 TOTAL WALL CLOCK TIME=        0.1 SECONDS, CPU UTILIZATION IS  27.27%

     ----------------------------------------------------------------
     PROPERTY VALUES FOR THE RHF   SELF-CONSISTENT FIELD WAVEFUNCTION
     ----------------------------------------------------------------

          ---------------------------------------
          MULLIKEN AND LOWDIN POPULATION ANALYSES
          ---------------------------------------

               ----- POPULATIONS IN EACH AO -----
                             MULLIKEN      LOWDIN
              1  LI 1  S      1.99801     1.97976
              2  LI 1  S     -0.06714     0.10022
              3  LI 1  X      0.00000     0.00000
              4  LI 1  Y      0.00000     0.00000
              5  LI 1  Z     -0.00722     0.01517
              6  LI 1  S      0.50967     0.32626
              7  LI 1  X      0.00000     0.00000
              8  LI 1  Y      0.00000     0.00000
              9  LI 1  Z      0.15533     0.13369
             10  LI 1 XX      0.01815     0.02657
             11  LI 1 YY      0.01815     0.02657
             12  LI 1 ZZ      0.02661     0.03330
             13  LI 1 XY      0.00000     0.00000
             14  LI 1 XZ      0.00000     0.00000
             15  LI 1 YZ      0.00000     0.00000
             16  H  2  S      0.31913     0.39222
             17  H  2  S      1.02927     0.96617
             18  H  2  X      0.00000     0.00000
             19  H  2  Y      0.00000     0.00000
             20  H  2  Z      0.00003     0.00008

          ----- MULLIKEN ATOMIC OVERLAP POPULATIONS -----
          (OFF-DIAGONAL ELEMENTS NEED TO BE MULTIPLIED BY 2)

             1           2

    1    2.5286956
    2    0.1228843   1.2255359

          TOTAL MULLIKEN AND LOWDIN ATOMIC POPULATIONS
       ATOM         MULL.POP.    CHARGE          LOW.POP.     CHARGE
    1 LI            2.651580    0.348420         2.641533    0.358467
    2 H             1.348420   -0.348420         1.358467   -0.358467

          -------------------------------
          BOND ORDER AND VALENCE ANALYSIS     BOND ORDER THRESHOLD=0.050
          -------------------------------

                   BOND                       BOND                       BOND
  ATOM PAIR DIST  ORDER      ATOM PAIR DIST  ORDER      ATOM PAIR DIST  ORDER
    1   2  4.400  0.879

                       TOTAL       BONDED        FREE
      ATOM            VALENCE     VALENCE     VALENCE
    1 LI                0.879       0.879       0.000
    2 H                 0.879       0.879       0.000

          ---------------------
          ELECTROSTATIC MOMENTS
          ---------------------

 POINT   1           X           Y           Z (BOHR)    CHARGE
                 0.000000    0.000000    1.044372       -0.00 (A.U.)
         DX          DY          DZ         /D/  (DEBYE)
     0.000000    0.000000  -11.783042   11.783042
 ...... END OF PROPERTY EVALUATION ......
 STEP CPU TIME =     0.01 TOTAL CPU TIME =        0.0 (    0.0 MIN)
 TOTAL WALL CLOCK TIME=        0.1 SECONDS, CPU UTILIZATION IS  36.36%

     ---------------------------
     COUPLED CLUSTER CALCULATION
     ---------------------------
 CCTYP                        =CCSD(T) 
 TOTAL NUMBER OF MOS          =    20
 NUMBER OF OCCUPIED MOS       =     2
 NUMBER OF FROZEN CORE MOS    =     0
 NUMBER OF FROZEN VIRTUAL MOS =     0
 MAXIMUM CC ITERATIONS        =    30
 MAXIMUM DIIS ITERATIONS      =     5
 CONVERGENCE CRITERION FOR CC =     7
 AMPLITUDE ACCURACY THRESHOLD = 0.0E+00

     --------------------------------------------
     PARTIAL TWO ELECTRON INTEGRAL TRANSFORMATION
     --------------------------------------------

 NUMBER OF CORE MOLECULAR ORBITALS     =    0
 NUMBER OF OCCUPIED MOLECULAR ORBITALS =   20
 TOTAL NUMBER OF MOLECULAR ORBITALS    =   20
 TOTAL NUMBER OF ATOMIC ORBITALS       =   20
 THRESHOLD FOR KEEPING TRANSFORMED 2E- INTEGRALS = 1.000E-09
 AO INTEGRALS WILL BE READ IN FROM DISK...

 PLAN A: REQUIREMENTS FOR FULLY IN-MEMORY TRANSFORMATION:
 # OF WORDS AVAILABLE =              1000000
 # OF WORDS NEEDED    =               146042

 CHOOSING IN MEMORY PARTIAL TRANSFORMATION...
 TOTAL NUMBER OF TRANSFORMED 2E- INTEGRALS KEPT =         5962
 ... END OF INTEGRAL TRANSFORMATION ...
 STEP CPU TIME =     0.00 TOTAL CPU TIME =        0.0 (    0.0 MIN)
 TOTAL WALL CLOCK TIME=        0.1 SECONDS, CPU UTILIZATION IS  33.33%

   -----------------------
   COUPLED-CLUSTER PROGRAM
   -----------------------

   -------------------------------------------------------
   P.PIECUCH, S.A.KUCHARSKI, M.WLOCH, K.KOWALSKI, M.MUSIAL
   -------------------------------------------------------

 *****************************************************************
 THE FOLLOWING PAPERS SHOULD BE CITED WHEN USING COUPLED-CLUSTER
 OPTIONS:

 CCTYP = LCCD, CCD, CCSD, CCSD(T)
 P. PIECUCH, S.A. KUCHARSKI, K. KOWALSKI, AND M. MUSIAL,
 COMP. PHYS. COMMUN. 149, 71-96 (2002).

 CCTYP = R-CC, CR-CC, CCSD(TQ), CR-CC(Q)
 P. PIECUCH, S.A. KUCHARSKI, K. KOWALSKI, AND M. MUSIAL,
 COMP. PHYS. COMMUN. 149, 71-96 (2002);
 K. KOWALSKI AND P. PIECUCH, J. CHEM. PHYS. 113, 18-35 (2000);
 K. KOWALSKI AND P. PIECUCH, J. CHEM. PHYS. 113, 5644-5652 (2000).

 CCTYP = EOM-CCSD, CR-EOM
 P. PIECUCH, S.A. KUCHARSKI, K. KOWALSKI, AND M. MUSIAL,
 COMP. PHYS. COMMUN. 149, 71-96 (2002);
 K. KOWALSKI AND P. PIECUCH, J. CHEM. PHYS. 120, 1715-1738 (2004);
 M. WLOCH, J.R. GOUR, K. KOWALSKI, AND P. PIECUCH,
 J. CHEM. PHYS. 122, 214107-1 - 214107-15 (2005).

 CCTYP = CR-CCL
 P. PIECUCH, S.A. KUCHARSKI, K. KOWALSKI, AND M. MUSIAL,
 COMP. PHYS. COMMUN. 149, 71-96 (2002);
 P. PIECUCH AND M. WLOCH, J. CHEM. PHYS. 123,
 224105-1 - 224105-10 (2005).

 CCTYP = CR-EOML
 P. PIECUCH, S.A. KUCHARSKI, K. KOWALSKI, AND M. MUSIAL,
 COMP. PHYS. COMMUN. 149, 71-96 (2002);
 P. PIECUCH, J. R. GOUR, AND M. WLOCH,
 INT. J. QUANTUM CHEM. 109, 3268-3304 (2009);
 K. KOWALSKI AND P. PIECUCH,
 J. CHEM. PHYS. 120, 1715-1738 (2004).

 IN ADDITION, THE USE OF CCPRP=.TRUE. IN $CCINP AND/OR THE USE
 OF CCPRPE=.TRUE. IN $EOMINP SHOULD REFERENCE

 M. WLOCH, J.R. GOUR, K. KOWALSKI, AND P. PIECUCH,
 J. CHEM. PHYS. 122, 214107-1 - 214107-15 (2005).
 *****************************************************************


 THE FOLLOWING CALCULATIONS WILL BE PERFORMED:
                                                     CCSD   
                                                     CCSD[T]
                                                     CCSD(T)

 THE FOLLOWING ENERGY WILL BE CONSIDERED THE HIGHEST LEVEL:    CCSD(T)
 THE AVAILABLE REPLICATED MEMORY IS     1000000 WORDS.
 CONVERGENCE THRESHOLD:   1.0E-07
 MAXIMUM NUMBER OF ITERATIONS:   30

 MEMORY TO BE USED IN CC INTEGRAL SORTING IS      140808 WORDS.
 THE MINIMUM MEMORY TO ACCOMPLISH SORTING IS       47496 WORDS.
         5962 NON-ZERO TRANSFORMED 2E- INTEGRALS WERE SORTED INTO FILE 72:
            6 [IJ|KL] TYPE,          48 [AJ|KL] TYPE,
          174 [AB|IJ] TYPE,         214 [IA|BJ] TYPE,
         1672 [AB|CI] TYPE,        3848 [AB|CD] TYPE.
 TRANSFORMED INTEGRAL FILE  9 WAS READ    3 TIMES.
 ....... DONE WITH CC INTEGRAL PREPARATION .......
 STEP CPU TIME =     0.00 TOTAL CPU TIME =        0.0 (    0.0 MIN)
 TOTAL WALL CLOCK TIME=        0.2 SECONDS, CPU UTILIZATION IS  25.00%

 MEMORY REQUIRED FOR THE CCSD ITERATIONS IS       23276 WORDS.
 ITER:  1   CCSD    CORR. ENERGY:  -0.0510867398   CONV.: -6.6408E-02
 ITER:  2   CCSD    CORR. ENERGY:  -0.0574004879   CONV.: -4.7429E-02
 ITER:  3   CCSD    CORR. ENERGY:  -0.0580551499   CONV.: -1.5008E-02
 ITER:  4   CCSD    CORR. ENERGY:  -0.0544845552   CONV.:  2.4943E-01
 ITER:  5   CCSD    CORR. ENERGY:  -0.0545045829   CONV.:  2.4919E-01
 ITER:  6   CCSD    CORR. ENERGY:  -0.0548819706   CONV.:  2.4871E-01
 ITER:  7   CCSD    CORR. ENERGY:  -0.0590440970   CONV.:  2.2855E-01
 ITER:  8   CCSD    CORR. ENERGY:  -0.0632805386   CONV.:  2.0880E-01
 ITER:  9   CCSD    CORR. ENERGY:  -0.1155848907   CONV.: -3.5258E-01
 ITER: 10   CCSD    CORR. ENERGY:  -0.0738655476   CONV.:  1.3689E-01
 ITER: 11   CCSD    CORR. ENERGY:  -0.0696142469   CONV.:  1.8182E-01
 ITER: 12   CCSD    CORR. ENERGY:  -0.0843593643   CONV.:  4.7402E-02
 ITER: 13   CCSD    CORR. ENERGY:  -0.0900613021   CONV.: -1.7075E-02
 ITER: 14   CCSD    CORR. ENERGY:  -0.0888169178   CONV.:  7.8223E-03
 ITER: 15   CCSD    CORR. ENERGY:  -0.0887329423   CONV.:  6.1314E-03
 ITER: 16   CCSD    CORR. ENERGY:  -0.0893571757   CONV.: -1.0669E-03
 ITER: 17   CCSD    CORR. ENERGY:  -0.0892652600   CONV.: -3.2507E-04
 ITER: 18   CCSD    CORR. ENERGY:  -0.0892678968   CONV.: -1.5312E-04
 ITER: 19   CCSD    CORR. ENERGY:  -0.0892733376   CONV.: -6.2590E-05
 ITER: 20   CCSD    CORR. ENERGY:  -0.0892703674   CONV.: -2.5607E-05
 ITER: 21   CCSD    CORR. ENERGY:  -0.0892722787   CONV.:  1.3657E-05
 ITER: 22   CCSD    CORR. ENERGY:  -0.0892740702   CONV.: -2.3812E-05
 ITER: 23   CCSD    CORR. ENERGY:  -0.0892733403   CONV.: -3.3227E-06
 ITER: 24   CCSD    CORR. ENERGY:  -0.0892739764   CONV.:  1.5452E-06
 ITER: 25   CCSD    CORR. ENERGY:  -0.0892740000   CONV.:  8.5942E-07
 ITER: 26   CCSD    CORR. ENERGY:  -0.0892739892   CONV.:  1.0825E-06
 ITER: 27   CCSD    CORR. ENERGY:  -0.0892739834   CONV.:  5.5732E-07
 ITER: 28   CCSD    CORR. ENERGY:  -0.0892739830   CONV.: -1.3635E-07
 ITER: 29   CCSD    CORR. ENERGY:  -0.0892739742   CONV.:  1.3463E-07
 ITER: 30   CCSD    CORR. ENERGY:  -0.0892739773   CONV.: -7.1847E-08

                  CCSD     ITERATIONS DID NOT CONVERGE


    MBPT(2) CORRELATION ENERGY:  -0.0414737559
    CCSD    CORRELATION ENERGY:  -0.0892739773

 T1 DIAGNOSTIC        =     0.25226319
 NORM OF THE T1 VECTOR=     0.50452638
 NORM OF THE T2 VECTOR=     1.02389814

 THE FIVE LARGEST T1 AMPLITUDES ARE:
 T1 AMPLITUDE IS  0.492568 FOR I=   2 -> A=   3
 T1 AMPLITUDE IS -0.080178 FOR I=   2 -> A=  10
 T1 AMPLITUDE IS -0.048756 FOR I=   2 -> A=  17
 T1 AMPLITUDE IS  0.039444 FOR I=   2 -> A=   6
 T1 AMPLITUDE IS  0.034404 FOR I=   2 -> A=   7

 THE FIVE LARGEST SPIN-UNIQUE T2 AMPLITUDES ARE:
 T2 AMPLITUDE IS -0.846561 FOR I,J=   2   2 -> A,B=   3   3
 T2 AMPLITUDE IS -0.378441 FOR I,J=   2   2 -> A,B=   3   6
 T2 AMPLITUDE IS -0.176265 FOR I,J=   2   2 -> A,B=   6   6
 T2 AMPLITUDE IS -0.062272 FOR I,J=   2   2 -> A,B=   3  17
 T2 AMPLITUDE IS -0.028935 FOR I,J=   2   2 -> A,B=   6  17
 PRINTED T2(I-ALPHA,J-BETA -> A-ALPHA,B-BETA) VALUES
 EQUAL   T2(J-ALPHA,I-BETA -> B-ALPHA,A-BETA) AMPLITUDES.

 ....... DONE WITH CC AMPLITUDE ITERATIONS .......
 STEP CPU TIME =     0.08 TOTAL CPU TIME =        0.1 (    0.0 MIN)
 TOTAL WALL CLOCK TIME=        0.2 SECONDS, CPU UTILIZATION IS  50.00%
 AMPLITUDE ITERATIONS DID NOT CONVERGE
 EXECUTION OF GAMESS TERMINATED -ABNORMALLY- AT Thu Jan 17 17:52:32 2019
               580000  WORDS OF DYNAMIC MEMORY USED
 STEP CPU TIME =     0.00 TOTAL CPU TIME =        0.1 (    0.0 MIN)
 TOTAL WALL CLOCK TIME=        0.2 SECONDS, CPU UTILIZATION IS  50.00%
 DDI Process 0: error code 911
 ddikick.x: application process 0 quit unexpectedly.
 ddikick.x: Fatal error detected.
 The error is most likely to be in the application, so check for
 input errors, disk space, memory needs, application bugs, etc.
 ddikick.x will now clean up all processes, and exit...
 DDI Process 1: terminated upon request.
 ddikick.x: Sending kill signal to DDI processes.
 ddikick.x: Execution terminated due to error(s).
unset echo
----- accounting info -----
Files used on the master node bach.ad64.riken.go.jp were:
-rw-------  1 maho  staff      258  1 17 17:52 .//LiH.631g/4.4/LiH.631g.CCSDT.4.4.gamess.F05
-rw-r--r--  1 maho  staff   180016  1 17 17:52 .//LiH.631g/4.4/LiH.631g.CCSDT.4.4.gamess.F08
-rw-r--r--  1 maho  staff   181704  1 17 17:52 .//LiH.631g/4.4/LiH.631g.CCSDT.4.4.gamess.F09
-rw-r--r--  1 maho  staff  1603280  1 17 17:52 .//LiH.631g/4.4/LiH.631g.CCSDT.4.4.gamess.F10
-rw-r--r--  1 maho  staff   388608  1 17 17:52 .//LiH.631g/4.4/LiH.631g.CCSDT.4.4.gamess.F70
-rw-r--r--  1 maho  staff   106560  1 17 17:52 .//LiH.631g/4.4/LiH.631g.CCSDT.4.4.gamess.F71
-rw-r--r--  1 maho  staff  2286144  1 17 17:52 .//LiH.631g/4.4/LiH.631g.CCSDT.4.4.gamess.F72
-rw-r--r--  1 maho  staff      864  1 17 17:52 .//LiH.631g/4.4/LiH.631g.CCSDT.4.4.gamess.F73
-rw-r--r--  1 maho  staff    20736  1 17 17:52 .//LiH.631g/4.4/LiH.631g.CCSDT.4.4.gamess.F74
-rw-r--r--  1 maho  staff        0  1 17 17:52 .//LiH.631g/4.4/LiH.631g.CCSDT.4.4.gamess.F75
-rw-r--r--  1 maho  staff        0  1 17 17:52 .//LiH.631g/4.4/LiH.631g.CCSDT.4.4.gamess.F76
-rw-r--r--  1 maho  staff        0  1 17 17:52 .//LiH.631g/4.4/LiH.631g.CCSDT.4.4.gamess.F77
-rw-r--r--  1 maho  staff     7352  1 17 17:52 .//LiH.631g/4.4/LiH.631g.CCSDT.4.4.gamess.dat
-rw-------  1 maho  staff      258  1 17 17:52 .//LiH.631g/4.4/LiH.631g.CCSDT.4.4.gamess.inp
-rw-r--r--  1 maho  staff    35859  1 17 17:52 .//LiH.631g/4.4/LiH.631g.CCSDT.4.4.gamess.log
ls: No match.
ls: No match.
ls: No match.
2019年 1月17日 木曜日 17時52分34秒 JST
0.208u 0.136s 0:02.81 11.7%	0+0k 25+7io 0pf+0w
