----- GAMESS execution script 'rungms' -----
This job is running on host bach.ad64.riken.go.jp
under operating system Darwin at 2019年 1月17日 木曜日 17時52分34秒 JST
Available scratch disk space (Kbyte units) at beginning of the job is
Filesystem   1024-blocks       Used Available Capacity iused      ifree %iused  Mounted on
/dev/disk2s2  1953178672 1144745808 808432864    59%  984603 4293982676    0%   /Volumes/Users
GAMESS temporary binary files will be written to ./
GAMESS supplementary output files will be written to ./
Copying input file LiH.631g/4.4/LiH.631g.fullCI.4.4.gamess.inp to your run's scratch directory...
cp LiH.631g/4.4/LiH.631g.fullCI.4.4.gamess.inp .//LiH.631g/4.4/LiH.631g.fullCI.4.4.gamess.F05
unset echo
/Volumes/Users/maho/bin/gamess//ddikick.x /Volumes/Users/maho/bin/gamess//gamess.00.x LiH.631g/4.4/LiH.631g.fullCI.4.4.gamess -ddi 1 1 bach.ad64.riken.go.jp -scr ./

 Distributed Data Interface kickoff program.
 Initiating 1 compute processes on 1 nodes to run the following command:
 /Volumes/Users/maho/bin/gamess//gamess.00.x LiH.631g/4.4/LiH.631g.fullCI.4.4.gamess 

          ******************************************************
          *         GAMESS VERSION = 18 AUG 2016 (R1)          *
          *             FROM IOWA STATE UNIVERSITY             *
          * M.W.SCHMIDT, K.K.BALDRIDGE, J.A.BOATZ, S.T.ELBERT, *
          *   M.S.GORDON, J.H.JENSEN, S.KOSEKI, N.MATSUNAGA,   *
          *          K.A.NGUYEN, S.J.SU, T.L.WINDUS,           *
          *       TOGETHER WITH M.DUPUIS, J.A.MONTGOMERY       *
          *         J.COMPUT.CHEM.  14, 1347-1363(1993)        *
          **************** 64 BIT APPLE VERSION ****************

  SINCE 1993, STUDENTS AND POSTDOCS WORKING AT IOWA STATE UNIVERSITY
  AND ALSO IN THEIR VARIOUS JOBS AFTER LEAVING ISU HAVE MADE IMPORTANT
  CONTRIBUTIONS TO THE CODE:
     IVANA ADAMOVIC, CHRISTINE AIKENS, YURI ALEXEEV, POOJA ARORA,
     ANDREY ASADCHEV, ROB BELL, PRADIPTA BANDYOPADHYAY, JONATHAN BENTZ,
     BRETT BODE, KURT BRORSEN, CALEB CARLIN, GALINA CHABAN, WEI CHEN,
     CHEOL HO CHOI, PAUL DAY, ALBERT DEFUSCO, NUWAN DESILVA, TIM DUDLEY,
     DMITRI FEDOROV, GRAHAM FLETCHER, MARK FREITAG, KURT GLAESEMANN,
     DAN KEMP, GRANT MERRILL, NORIYUKI MINEZAWA, JONATHAN MULLIN,
     TAKESHI NAGATA, SEAN NEDD, HEATHER NETZLOFF, BOSILJKA NJEGIC, RYAN OLSON,
     MIKE PAK, SPENCER PRUITT, LUKE ROSKOP, JIM SHOEMAKER, LYUDMILA SLIPCHENKO,
     TONY SMITH, SAROM SOK LEANG, JIE SONG, TETSUYA TAKETSUGU, SIMON WEBB,
     PENG XU, SOOHAENG YOO, FEDERICO ZAHARIEV

  ADDITIONAL CODE HAS BEEN PROVIDED BY COLLABORATORS IN OTHER GROUPS:
     IOWA STATE UNIVERSITY:
          JOE IVANIC, AARON WEST, LAIMUTIS BYTAUTAS, KLAUS RUEDENBERG
     UNIVERSITY OF TOKYO: KIMIHIKO HIRAO, TAKAHITO NAKAJIMA,
          TAKAO TSUNEDA, MUNEAKI KAMIYA, SUSUMU YANAGISAWA,
          KIYOSHI YAGI, MAHITO CHIBA, SEIKEN TOKURA, NAOAKI KAWAKAMI
     UNIVERSITY OF AARHUS: FRANK JENSEN
     UNIVERSITY OF IOWA: VISVALDAS KAIRYS, HUI LI
     NATIONAL INST. OF STANDARDS AND TECHNOLOGY: WALT STEVENS, DAVID GARMER
     UNIVERSITY OF PISA: BENEDETTA MENNUCCI, JACOPO TOMASI
     UNIVERSITY OF MEMPHIS: HENRY KURTZ, PRAKASHAN KORAMBATH
     UNIVERSITY OF ALBERTA: TOBY ZENG, MARIUSZ KLOBUKOWSKI
     UNIVERSITY OF NEW ENGLAND: MARK SPACKMAN
     MIE UNIVERSITY: HIROAKI UMEDA
     NAT. INST. OF ADVANCED INDUSTRIAL SCIENCE AND TECHNOLOGY: KAZUO KITAURA
     MICHIGAN STATE UNIVERSITY:
          KAROL KOWALSKI, MARTA WLOCH, JEFFREY GOUR, JESSE LUTZ,
          WEI LI, PIOTR PIECUCH
     UNIVERSITY OF SILESIA: MONIKA MUSIAL, STANISLAW KUCHARSKI
     FACULTES UNIVERSITAIRES NOTRE-DAME DE LA PAIX:
          OLIVIER QUINET, BENOIT CHAMPAGNE
     UNIVERSITY OF CALIFORNIA - SANTA BARBARA: BERNARD KIRTMAN
     INSTITUTE FOR MOLECULAR SCIENCE:
          KAZUYA ISHIMURA, MICHIO KATOUDA, AND SHIGERU NAGASE
     UNIVERSITY OF NOTRE DAME: ANNA POMOGAEVA, DAN CHIPMAN
     KYUSHU UNIVERSITY:
          HARUYUKI NAKANO,
          FENG LONG GU, JACEK KORCHOWIEC, MARCIN MAKOWSKI, AND YURIKO AOKI,
          HIROTOSHI MORI AND EISAKU MIYOSHI
     PENNSYLVANIA STATE UNIVERSITY:
          TZVETELIN IORDANOV, CHET SWALINA, JONATHAN SKONE,
          SHARON HAMMES-SCHIFFER
     WASEDA UNIVERSITY:
          MASATO KOBAYASHI, TOMOKO AKAMA, TSUGUKI TOUMA,
          TAKESHI YOSHIKAWA, YASUHIRO IKABATA, JUNJI SEINO,
          YUYA NAKAJIMA, HIROMI NAKAI
     NANJING UNIVERSITY: SHUHUA LI
     UNIVERSITY OF NEBRASKA:
          PEIFENG SU, DEJUN SI, NANDUN THELLAMUREGE, YALI WANG, HUI LI
     UNIVERSITY OF ZURICH: ROBERTO PEVERATI, KIM BALDRIDGE
     N. COPERNICUS UNIVERSITY AND JACKSON STATE UNIVERSITY:
          MARIA BARYSZ
     UNIVERSITY OF COPENHAGEN: Jimmy Kromann, CASPER STEINMANN
     TOKYO INSTITUTE OF TECHNOLOGY: HIROYA NAKATA
     NAGOYA UNIVERSITY: YOSHIO NISHIMOTO, STEPHAN IRLE
     MOSCOW STATE UNIVERSITY: VLADIMIR MIRONOV

 EXECUTION OF GAMESS BEGUN Thu Jan 17 17:52:35 2019

            ECHO OF THE FIRST FEW INPUT CARDS -
 INPUT CARD> $CONTRL SCFTYP=RHF CITYP=ALDET $END                                            
 INPUT CARD> $GUESS  GUESS=HUCKEL $END                                                      
 INPUT CARD> $BASIS GBASIS=N31 NGAUSS=6 NDFUNC=1 NPFUNC=1 $END                              
 INPUT CARD> $CIDET SZ=0 GROUP=C2V NCORE=0 NACT=20 NELS=4 $END                              
 INPUT CARD> $DATA                                                                          
 INPUT CARD>LiH...HF...6-31G* basis                                                         
 INPUT CARD>Cnv   2                                                                         
 INPUT CARD>                                                                                
 INPUT CARD>Li    3.0    0.0      0.0     0.0                                               
 INPUT CARD>H     1.0    0.0      0.0     4.4                                               
 INPUT CARD> $END                                                                           
    1000000 WORDS OF MEMORY AVAILABLE

     BASIS OPTIONS
     -------------
     GBASIS=N31          IGAUSS=       6      POLAR=POPN31  
     NDFUNC=       1     NFFUNC=       0     DIFFSP=       F
     NPFUNC=       1      DIFFS=       F     BASNAM=        


     RUN TITLE
     ---------
 LiH...HF...6-31G* basis                                                         

 THE POINT GROUP OF THE MOLECULE IS CNV     
 THE ORDER OF THE PRINCIPAL AXIS IS     2

 ATOM      ATOMIC                      COORDINATES (BOHR)
           CHARGE         X                   Y                   Z
 LI          3.0     0.0000000000        0.0000000000        0.0000000000
 H           1.0     0.0000000000        0.0000000000        8.3147943460

          INTERNUCLEAR DISTANCES (ANGS.)
          ------------------------------

                1 LI         2 H     

   1 LI      0.0000000    4.4000000  
   2 H       4.4000000    0.0000000  

  * ... LESS THAN  3.000


     ATOMIC BASIS SET
     ----------------
 THE CONTRACTED PRIMITIVE FUNCTIONS HAVE BEEN UNNORMALIZED
 THE CONTRACTED BASIS FUNCTIONS ARE NOW NORMALIZED TO UNITY

  SHELL TYPE  PRIMITIVE        EXPONENT          CONTRACTION COEFFICIENT(S)

 LI        

      1   S       1           642.4189150    0.002142607810
      1   S       2            96.7985153    0.016208871501
      1   S       3            22.0911212    0.077315572504
      1   S       4             6.2010702    0.245786052013
      1   S       5             1.9351177    0.470189004025
      1   S       6             0.6367358    0.345470845019

      2   L       7             2.3249184   -0.035091745735    0.008941508043
      2   L       8             0.6324304   -0.191232843103    0.141009464046
      2   L       9             0.0790534    1.083987794916    0.945363695309

      3   L      10             0.0359620    1.000000000000    1.000000000000

      4   D      11             0.2000000    1.000000000000

 H         

      5   S      12            18.7311370    0.033494604338
      5   S      13             2.8253944    0.234726953484
      5   S      14             0.6401217    0.813757326146

      6   S      15             0.1612778    1.000000000000

      7   P      16             1.1000000    1.000000000000

 TOTAL NUMBER OF BASIS SET SHELLS             =    7
 NUMBER OF CARTESIAN GAUSSIAN BASIS FUNCTIONS =   20
 NUMBER OF ELECTRONS                          =    4
 CHARGE OF MOLECULE                           =    0
 SPIN MULTIPLICITY                            =    1
 NUMBER OF OCCUPIED ORBITALS (ALPHA)          =    2
 NUMBER OF OCCUPIED ORBITALS (BETA )          =    2
 TOTAL NUMBER OF ATOMS                        =    2
 THE NUCLEAR REPULSION ENERGY IS        0.3608026699

 THIS MOLECULE IS RECOGNIZED AS BEING LINEAR,
 ORBITAL LZ DEGENERACY TOLERANCE ETOLLZ= 1.00E-06

     $CONTRL OPTIONS
     ---------------
 SCFTYP=RHF          RUNTYP=ENERGY       EXETYP=RUN     
 MPLEVL=       0     CITYP =ALDET        CCTYP =NONE         VBTYP =NONE    
 DFTTYP=NONE         TDDFT =NONE    
 MULT  =       1     ICHARG=       0     NZVAR =       0     COORD =UNIQUE  
 PP    =NONE         RELWFN=NONE         LOCAL =NONE         NUMGRD=       F
 ISPHER=      -1     NOSYM =       0     MAXIT =      30     UNITS =ANGS    
 PLTORB=       F     MOLPLT=       F     AIMPAC=       F     FRIEND=        
 NPRINT=       7     IREST =       0     GEOM  =INPUT   
 NORMF =       0     NORMP =       0     ITOL  =      20     ICUT  =       9
 INTTYP=BEST         GRDTYP=BEST         QMTTOL= 1.0E-06

     $SYSTEM OPTIONS
     ---------------
  REPLICATED MEMORY=     1000000 WORDS (ON EVERY NODE).
 DISTRIBUTED MEMDDI=           0 MILLION WORDS IN AGGREGATE,
 MEMDDI DISTRIBUTED OVER   1 PROCESSORS IS           0 WORDS/PROCESSOR.
 TOTAL MEMORY REQUESTED ON EACH PROCESSOR=     1000000 WORDS.
 TIMLIM=      525600.00 MINUTES, OR     365.0 DAYS.
 PARALL= F  BALTYP=  DLB     KDIAG=    0  COREFL= F
 MXSEQ2=     300 MXSEQ3=     150  mem10=         0

          ----------------
          PROPERTIES INPUT
          ----------------

     MOMENTS            FIELD           POTENTIAL          DENSITY
 IEMOM =       1   IEFLD =       0   IEPOT =       0   IEDEN =       0
 WHERE =COMASS     WHERE =NUCLEI     WHERE =NUCLEI     WHERE =NUCLEI  
 OUTPUT=BOTH       OUTPUT=BOTH       OUTPUT=BOTH       OUTPUT=BOTH    
 IEMINT=       0   IEFINT=       0                     IEDINT=       0
                                                       MORB  =       0
          EXTRAPOLATION IN EFFECT
          SOSCF IN EFFECT
 ORBITAL PRINTING OPTION: NPREO=     1    20     2     1

     -------------------------------
     INTEGRAL TRANSFORMATION OPTIONS
     -------------------------------
     NWORD  =            0
     CUTOFF = 1.0E-09     MPTRAN =       0
     DIRTRF =       F     AOINTS =DUP     

          ----------------------
          INTEGRAL INPUT OPTIONS
          ----------------------
 NOPK  =       1 NORDER=       0 SCHWRZ=       F

     ------------------------------------------
     THE POINT GROUP IS CNV, NAXIS= 2, ORDER= 4
     ------------------------------------------

     DIMENSIONS OF THE SYMMETRY SUBSPACES ARE
 A1  =   11     A2  =    1     B1  =    4     B2  =    4

 ..... DONE SETTING UP THE RUN .....
 STEP CPU TIME =     0.00 TOTAL CPU TIME =        0.0 (    0.0 MIN)
 TOTAL WALL CLOCK TIME=        0.0 SECONDS, CPU UTILIZATION IS   0.00%

          ********************
          1 ELECTRON INTEGRALS
          ********************
 ...... END OF ONE-ELECTRON INTEGRALS ......
 STEP CPU TIME =     0.00 TOTAL CPU TIME =        0.0 (    0.0 MIN)
 TOTAL WALL CLOCK TIME=        0.0 SECONDS, CPU UTILIZATION IS   0.00%

          -------------
          GUESS OPTIONS
          -------------
          GUESS =HUCKEL            NORB  =       0          NORDER=       0
          MIX   =       F          PRTMO =       F          PUNMO =       F
          TOLZ  = 1.0E-08          TOLE  = 1.0E-05
          SYMDEN=       F          PURIFY=       F

 INITIAL GUESS ORBITALS GENERATED BY HUCKEL   ROUTINE.
 HUCKEL GUESS REQUIRES      4469 WORDS.

 SYMMETRIES FOR INITIAL GUESS ORBITALS FOLLOW.   BOTH SET(S).
     2 ORBITALS ARE OCCUPIED (    1 CORE ORBITALS).
     2=A1       3=A1       4=A1       5=A1       6=A1       7=A1       8=A1  
     9=A1      10=A1      11=A1      12=A2  
 ...... END OF INITIAL ORBITAL SELECTION ......
 STEP CPU TIME =     0.00 TOTAL CPU TIME =        0.0 (    0.0 MIN)
 TOTAL WALL CLOCK TIME=        0.0 SECONDS, CPU UTILIZATION IS   0.00%

                    ----------------------
                    AO INTEGRAL TECHNOLOGY
                    ----------------------
     S,P,L SHELL ROTATED AXIS INTEGRALS, REPROGRAMMED BY
        KAZUYA ISHIMURA (IMS) AND JOSE SIERRA (SYNSTAR).
     S,P,D,L SHELL ROTATED AXIS INTEGRALS PROGRAMMED BY
        KAZUYA ISHIMURA (INSTITUTE FOR MOLECULAR SCIENCE).
     S,P,D,F,G SHELL TO TOTAL QUARTET ANGULAR MOMENTUM SUM 5,
        ERIC PROGRAM BY GRAHAM FLETCHER (ELORET AND NASA ADVANCED
        SUPERCOMPUTING DIVISION, AMES RESEARCH CENTER).
     S,P,D,F,G,L SHELL GENERAL RYS QUADRATURE PROGRAMMED BY
        MICHEL DUPUIS (PACIFIC NORTHWEST NATIONAL LABORATORY).

          --------------------
          2 ELECTRON INTEGRALS
          --------------------

 THE -PK- OPTION IS OFF, THE INTEGRALS ARE NOT IN SUPERMATRIX FORM.
 STORING   15000 INTEGRALS/RECORD ON DISK, USING 12 BYTES/INTEGRAL.
 TWO ELECTRON INTEGRAL EVALUATION REQUIRES   90424 WORDS OF MEMORY.
 II,JST,KST,LST =  1  1  1  1 NREC =         1 INTLOC =    1
 II,JST,KST,LST =  2  1  1  1 NREC =         1 INTLOC =    2
 II,JST,KST,LST =  3  1  1  1 NREC =         1 INTLOC =   34
 II,JST,KST,LST =  4  1  1  1 NREC =         1 INTLOC =  214
 II,JST,KST,LST =  5  1  1  1 NREC =         1 INTLOC = 1189
 II,JST,KST,LST =  6  1  1  1 NREC =         1 INTLOC = 1800
 II,JST,KST,LST =  7  1  1  1 NREC =         1 INTLOC = 2633
 TOTAL NUMBER OF NONZERO TWO-ELECTRON INTEGRALS =                5151
          1 INTEGRAL RECORDS WERE STORED ON DISK FILE  8.
  ...... END OF TWO-ELECTRON INTEGRALS .....
 STEP CPU TIME =     0.02 TOTAL CPU TIME =        0.0 (    0.0 MIN)
 TOTAL WALL CLOCK TIME=        0.0 SECONDS, CPU UTILIZATION IS  66.67%

          --------------------------
                 RHF SCF CALCULATION
          --------------------------

     NUCLEAR ENERGY =         0.3608026699
     MAXIT =   30     NPUNCH=    2
     EXTRAP=T  DAMP=F  SHIFT=F  RSTRCT=F  DIIS=F  DEM=F  SOSCF=T
     DENSITY MATRIX CONV=  1.00E-06
     SOSCF WILL OPTIMIZE      36 ORBITAL ROTATIONS, SOGTOL=   0.250
     MEMORY REQUIRED FOR RHF ITERS=     33224 WORDS.

 ITER EX DEM     TOTAL ENERGY        E CHANGE  DENSITY CHANGE     ORB. GRAD
   1  0  0       -7.5017257526    -7.5017257526   1.089890416   0.000000000
          ---------------START SECOND ORDER SCF---------------
 SOSCF IS SCALING ROTATION ANGLE MATRIX, SQCDF=    0.118903
   2  1  0       -7.4574257947     0.0442999579   0.642292098   0.063859444
 SOSCF IS SCALING ROTATION ANGLE MATRIX, SQCDF=    0.655844
   3  2  0       -7.6005911337    -0.1431653390   1.007048432   0.106223786
   4  3  0       -7.7223725953    -0.1217814616   0.539842265   0.101407912
   5  4  0       -7.7921638376    -0.0697912424   0.342612849   0.047069179
   6  5  0       -7.8322219282    -0.0400580906   0.281055731   0.011313162
   7  6  0       -7.8383309844    -0.0061090562   0.134882965   0.021054304
   8  7  0       -7.8416466446    -0.0033156601   0.054400275   0.004201389
   9  8  0       -7.8422208157    -0.0005741711   0.033354238   0.002555016
  10  9  0       -7.8422561111    -0.0000352954   0.008441763   0.000392243
  11 10  0       -7.8422593951    -0.0000032840   0.000311484   0.000137289
  12 11  0       -7.8422594567    -0.0000000617   0.000068636   0.000024195
  13 12  0       -7.8422594581    -0.0000000014   0.000010108   0.000001520
  14 13  0       -7.8422594582    -0.0000000000   0.000001493   0.000000149
  15 14  0       -7.8422594582    -0.0000000000   0.000000000   0.000000007

          -----------------
          DENSITY CONVERGED
          -----------------
     TIME TO FORM FOCK OPERATORS=       0.0 SECONDS (       0.0 SEC/ITER)
     TIME TO SOLVE SCF EQUATIONS=       0.0 SECONDS (       0.0 SEC/ITER)

 FINAL RHF ENERGY IS       -7.8422594582 AFTER  15 ITERATIONS

 LZ VALUE ANALYSIS FOR THE MOS
 ----------------------------------------
 MO     1 (    1) HAS LZ(WEIGHT)= 0.00(100.0%) 
 MO     2 (    2) HAS LZ(WEIGHT)= 0.00(100.0%) 
 MO     3 (    3) HAS LZ(WEIGHT)= 0.00(100.0%) 
 MO     4 (    4) HAS LZ(WEIGHT)=-1.00( 50.0%)  1.00( 50.0%) 
 MO     5 (    4) HAS LZ(WEIGHT)=-1.00( 50.0%)  1.00( 50.0%) 
 MO     6 (    5) HAS LZ(WEIGHT)= 0.00(100.0%) 
 MO     7 (    6) HAS LZ(WEIGHT)= 0.00(100.0%) 
 MO     8 (    7) HAS LZ(WEIGHT)=-1.00( 50.0%)  1.00( 50.0%) 
 MO     9 (    7) HAS LZ(WEIGHT)=-1.00( 50.0%)  1.00( 50.0%) 
 MO    10 (    8) HAS LZ(WEIGHT)= 0.00(100.0%) 
 MO    11 (    9) HAS LZ(WEIGHT)=-2.00( 50.0%)  2.00( 50.0%) 
 MO    12 (    9) HAS LZ(WEIGHT)=-2.00( 50.0%)  2.00( 50.0%) 
 MO    13 (   10) HAS LZ(WEIGHT)=-1.00( 50.0%)  1.00( 50.0%) 
 MO    14 (   10) HAS LZ(WEIGHT)=-1.00( 50.0%)  1.00( 50.0%) 
 MO    15 (   11) HAS LZ(WEIGHT)= 0.00(100.0%) 
 MO    16 (   12) HAS LZ(WEIGHT)= 0.00(100.0%) 
 MO    17 (   13) HAS LZ(WEIGHT)= 0.00(100.0%) 
 MO    18 (   14) HAS LZ(WEIGHT)=-1.00( 50.0%)  1.00( 50.0%) 
 MO    19 (   14) HAS LZ(WEIGHT)=-1.00( 50.0%)  1.00( 50.0%) 
 MO    20 (   15) HAS LZ(WEIGHT)= 0.00(100.0%) 

          ------------
          EIGENVECTORS
          ------------

                      1          2          3          4          5
                   -2.5845    -0.1861    -0.0484     0.0219     0.0219
                     A1         A1         A1         B2         B1  
    1  LI 1  S    0.998765  -0.092941  -0.161541  -0.000000  -0.000000
    2  LI 1  S   -0.012290  -0.071465   0.089020  -0.000000  -0.000000
    3  LI 1  X    0.000000  -0.000000  -0.000000  -0.000000   0.237793
    4  LI 1  Y    0.000000  -0.000000  -0.000000   0.237793  -0.000000
    5  LI 1  Z   -0.002563  -0.018010  -0.088295  -0.000000  -0.000000
    6  LI 1  S    0.001940   0.486303   0.710359  -0.000000  -0.000000
    7  LI 1  X    0.000000  -0.000000  -0.000000  -0.000000   0.798821
    8  LI 1  Y    0.000000  -0.000000  -0.000000   0.798821  -0.000000
    9  LI 1  Z    0.001738   0.216500  -0.308576  -0.000000  -0.000000
   10  LI 1 XX    0.008794   0.028857   0.036394  -0.000000  -0.000000
   11  LI 1 YY    0.008794   0.028857   0.036394  -0.000000  -0.000000
   12  LI 1 ZZ    0.008670   0.041468   0.033584  -0.000000  -0.000000
   13  LI 1 XY    0.000000  -0.000000  -0.000000  -0.000000  -0.000000
   14  LI 1 XZ    0.000000  -0.000000  -0.000000  -0.000000  -0.024853
   15  LI 1 YZ    0.000000  -0.000000  -0.000000  -0.024853  -0.000000
   16  H  2  S    0.000048   0.239711  -0.109120  -0.000000  -0.000000
   17  H  2  S   -0.000204   0.603912  -0.283049  -0.000000  -0.000000
   18  H  2  X    0.000000  -0.000000  -0.000000  -0.000000   0.000934
   19  H  2  Y    0.000000  -0.000000  -0.000000   0.000934  -0.000000
   20  H  2  Z    0.000005  -0.001142  -0.000856  -0.000000  -0.000000

                      6          7          8          9         10
                    0.0535     0.1490     0.1657     0.1657     0.2135
                     A1         A1         B1         B2         A1  
    1  LI 1  S   -0.037795   0.059159  -0.000000  -0.000000   0.063026
    2  LI 1  S    0.505346   2.325549  -0.000000  -0.000000   2.229710
    3  LI 1  X   -0.000000  -0.000000   1.655981  -0.000000   0.000000
    4  LI 1  Y   -0.000000  -0.000000  -0.000000   1.655981   0.000000
    5  LI 1  Z    0.298001  -1.172015  -0.000000  -0.000000   1.200445
    6  LI 1  S   -0.154364  -1.815546  -0.000000  -0.000000  -1.782850
    7  LI 1  X   -0.000000  -0.000000  -1.471077  -0.000000   0.000000
    8  LI 1  Y   -0.000000  -0.000000  -0.000000  -1.471077   0.000000
    9  LI 1  Z    0.651416   0.981667  -0.000000  -0.000000  -1.236227
   10  LI 1 XX   -0.007131  -0.230399  -0.000000  -0.000000  -0.183954
   11  LI 1 YY   -0.007131  -0.230399  -0.000000  -0.000000  -0.183954
   12  LI 1 ZZ   -0.075516  -0.185806  -0.000000  -0.000000  -0.217229
   13  LI 1 XY   -0.000000  -0.000000  -0.000000  -0.000000   0.000000
   14  LI 1 XZ   -0.000000  -0.000000  -0.037649  -0.000000   0.000000
   15  LI 1 YZ   -0.000000  -0.000000  -0.000000  -0.037649   0.000000
   16  H  2  S   -0.107026   0.013327  -0.000000  -0.000000   0.048245
   17  H  2  S   -0.397838  -0.024991  -0.000000  -0.000000   0.333281
   18  H  2  X   -0.000000  -0.000000  -0.000953  -0.000000   0.000000
   19  H  2  Y   -0.000000  -0.000000  -0.000000  -0.000953   0.000000
   20  H  2  Z   -0.003075   0.001139  -0.000000  -0.000000   0.002169

                     11         12         13         14         15
                    0.4986     0.4986     0.5035     0.5035     0.5063
                     A1         A2         B2         B1         A1  
    1  LI 1  S    0.000000   0.000000  -0.000000  -0.000000  -0.001154
    2  LI 1  S    0.000000   0.000000  -0.000000  -0.000000   0.031972
    3  LI 1  X    0.000000   0.000000  -0.000000   0.068329   0.000000
    4  LI 1  Y    0.000000   0.000000   0.068329  -0.000000   0.000000
    5  LI 1  Z    0.000000   0.000000  -0.000000  -0.000000   0.073814
    6  LI 1  S    0.000000   0.000000  -0.000000  -0.000000  -0.004142
    7  LI 1  X    0.000000   0.000000  -0.000000  -0.035572   0.000000
    8  LI 1  Y    0.000000   0.000000  -0.035572  -0.000000   0.000000
    9  LI 1  Z    0.000000   0.000000  -0.000000  -0.000000  -0.028147
   10  LI 1 XX    0.866025   0.000000  -0.000000  -0.000000  -0.507658
   11  LI 1 YY   -0.866025   0.000000  -0.000000  -0.000000  -0.507658
   12  LI 1 ZZ    0.000000   0.000000  -0.000000  -0.000000   0.989010
   13  LI 1 XY    0.000000   1.000000  -0.000000  -0.000000   0.000000
   14  LI 1 XZ    0.000000   0.000000  -0.000000   0.998982   0.000000
   15  LI 1 YZ    0.000000   0.000000   0.998982  -0.000000   0.000000
   16  H  2  S    0.000000   0.000000  -0.000000  -0.000000  -0.036529
   17  H  2  S    0.000000   0.000000  -0.000000  -0.000000  -0.001453
   18  H  2  X    0.000000   0.000000  -0.000000   0.000245   0.000000
   19  H  2  Y    0.000000   0.000000   0.000245  -0.000000   0.000000
   20  H  2  Z    0.000000   0.000000  -0.000000  -0.000000  -0.001270

                     16         17         18         19         20
                    1.1514     1.1929     2.4660     2.4660     2.4702
                     A1         A1         B2         B1         A1  
    1  LI 1  S    0.102667   0.058133  -0.000000  -0.000000  -0.004933
    2  LI 1  S    8.745604   3.713889  -0.000000  -0.000000  -0.129565
    3  LI 1  X    0.000000  -0.000000  -0.000000   0.013168  -0.000000
    4  LI 1  Y    0.000000  -0.000000   0.013168  -0.000000  -0.000000
    5  LI 1  Z   -0.014980   0.137563  -0.000000  -0.000000  -0.036042
    6  LI 1  S   -2.673795  -1.321781  -0.000000  -0.000000   0.084665
    7  LI 1  X    0.000000  -0.000000  -0.000000  -0.018160  -0.000000
    8  LI 1  Y    0.000000  -0.000000  -0.018160  -0.000000  -0.000000
    9  LI 1  Z    0.039272  -0.238894  -0.000000  -0.000000   0.061612
   10  LI 1 XX   -2.926742  -1.157407  -0.000000  -0.000000   0.025913
   11  LI 1 YY   -2.926742  -1.157407  -0.000000  -0.000000   0.025913
   12  LI 1 ZZ   -2.913494  -1.208659  -0.000000  -0.000000   0.028677
   13  LI 1 XY    0.000000  -0.000000  -0.000000  -0.000000  -0.000000
   14  LI 1 XZ    0.000000  -0.000000  -0.000000  -0.000281  -0.000000
   15  LI 1 YZ    0.000000  -0.000000  -0.000281  -0.000000  -0.000000
   16  H  2  S    0.459474  -1.227810  -0.000000  -0.000000   0.012971
   17  H  2  S   -0.320486   1.097052  -0.000000  -0.000000  -0.026252
   18  H  2  X    0.000000  -0.000000  -0.000000   1.000045  -0.000000
   19  H  2  Y    0.000000  -0.000000   1.000045  -0.000000  -0.000000
   20  H  2  Z   -0.001608   0.003939  -0.000000  -0.000000   1.000761
 ...... END OF RHF CALCULATION ......
 STEP CPU TIME =     0.01 TOTAL CPU TIME =        0.0 (    0.0 MIN)
 TOTAL WALL CLOCK TIME=        0.0 SECONDS, CPU UTILIZATION IS  60.00%

     ----------------------------------------------------------------
     PROPERTY VALUES FOR THE RHF   SELF-CONSISTENT FIELD WAVEFUNCTION
     ----------------------------------------------------------------

          -----------------
          ENERGY COMPONENTS
          -----------------

         WAVEFUNCTION NORMALIZATION =       1.0000000000

                ONE ELECTRON ENERGY =     -10.8649229576
                TWO ELECTRON ENERGY =       2.6618608295
           NUCLEAR REPULSION ENERGY =       0.3608026699
                                      ------------------
                       TOTAL ENERGY =      -7.8422594582

 ELECTRON-ELECTRON POTENTIAL ENERGY =       2.6618608295
  NUCLEUS-ELECTRON POTENTIAL ENERGY =     -18.6751380922
   NUCLEUS-NUCLEUS POTENTIAL ENERGY =       0.3608026699
                                      ------------------
             TOTAL POTENTIAL ENERGY =     -15.6524745928
               TOTAL KINETIC ENERGY =       7.8102151346
                 VIRIAL RATIO (V/T) =       2.0041028734

  ...... PI ENERGY ANALYSIS ......

 ENERGY ANALYSIS:
            FOCK ENERGY=     -5.5412012916
          BARE H ENERGY=    -10.8649229576
     ELECTRONIC ENERGY =     -8.2030621246
         KINETIC ENERGY=      7.8102151346
          N-N REPULSION=      0.3608026699
           TOTAL ENERGY=     -7.8422594546
        SIGMA PART(1+2)=     -8.2030621246
               (K,V1,2)=      7.8102151346    -18.6751380922      2.6618608330
           PI PART(1+2)=      0.0000000000
               (K,V1,2)=      0.0000000000      0.0000000000      0.0000000000
  SIGMA SKELETON, ERROR=     -7.8422594546      0.0000000000
             MIXED PART= 0.00000E+00 0.00000E+00 0.00000E+00 0.00000E+00
 ...... END OF PI ENERGY ANALYSIS ......

          ---------------------------------------
          MULLIKEN AND LOWDIN POPULATION ANALYSES
          ---------------------------------------

               ----- POPULATIONS IN EACH AO -----
                             MULLIKEN      LOWDIN
              1  LI 1  S      1.99801     1.97976
              2  LI 1  S     -0.06714     0.10022
              3  LI 1  X      0.00000     0.00000
              4  LI 1  Y      0.00000     0.00000
              5  LI 1  Z     -0.00722     0.01517
              6  LI 1  S      0.50967     0.32626
              7  LI 1  X      0.00000     0.00000
              8  LI 1  Y      0.00000     0.00000
              9  LI 1  Z      0.15533     0.13369
             10  LI 1 XX      0.01815     0.02657
             11  LI 1 YY      0.01815     0.02657
             12  LI 1 ZZ      0.02661     0.03330
             13  LI 1 XY      0.00000     0.00000
             14  LI 1 XZ      0.00000     0.00000
             15  LI 1 YZ      0.00000     0.00000
             16  H  2  S      0.31913     0.39222
             17  H  2  S      1.02927     0.96617
             18  H  2  X      0.00000     0.00000
             19  H  2  Y      0.00000     0.00000
             20  H  2  Z      0.00003     0.00008

          ----- MULLIKEN ATOMIC OVERLAP POPULATIONS -----
          (OFF-DIAGONAL ELEMENTS NEED TO BE MULTIPLIED BY 2)

             1           2

    1    2.5286956
    2    0.1228843   1.2255359

          TOTAL MULLIKEN AND LOWDIN ATOMIC POPULATIONS
       ATOM         MULL.POP.    CHARGE          LOW.POP.     CHARGE
    1 LI            2.651580    0.348420         2.641533    0.358467
    2 H             1.348420   -0.348420         1.358467   -0.358467

          ---------------------
          ELECTROSTATIC MOMENTS
          ---------------------

 POINT   1           X           Y           Z (BOHR)    CHARGE
                 0.000000    0.000000    1.044372       -0.00 (A.U.)
         DX          DY          DZ         /D/  (DEBYE)
     0.000000    0.000000  -11.783042   11.783042
 ...... END OF PROPERTY EVALUATION ......
 STEP CPU TIME =     0.00 TOTAL CPU TIME =        0.0 (    0.0 MIN)
 TOTAL WALL CLOCK TIME=        0.1 SECONDS, CPU UTILIZATION IS  50.00%

 DETERMINANT CI OPTIONS   NRNFG   NPFLG
 INTEGRAL TRANSFORMATION    1       0
 DIAGONALIZE HAMILTONIAN    1       0
 FORM 1E- DENSITY MATRIX    1       0
 FORM 2E- DENSITY MATRIX    0       0

     --------------------------------------------------
          AMES LABORATORY DETERMINANTAL FULL CI
     PROGRAM WRITTEN BY JOE IVANIC AND KLAUS RUEDENBERG
     --------------------------------------------------

 THE POINT GROUP                  =   C2V     
 THE STATE SYMMETRY               =   A1      
 NUMBER OF CORE ORBITALS          =    0
 NUMBER OF ACTIVE ORBITALS        =   20
 NUMBER OF ALPHA ELECTRONS        =    2 (   2 ACTIVE)
 NUMBER OF BETA ELECTRONS         =    2 (   2 ACTIVE)
 NUMBER OF OCCUPIED ORBITALS      =   20
 NUMBER OF CI STATES REQUESTED    =    1
 NUMBER OF CI STARTING VECTORS    =    1
 MAX. NO. OF CI EXPANSION VECTORS =   10
 SIZE OF INITIAL CI GUESS MATRIX  =  300
 MAX. NO. OF CI ITERS/STATE       =  100
 CI DIAGONALIZATION CRITERION     = 1.00E-06
 CI PROPERTIES WILL BE FOUND FOR ROOT NUMBER   1
 1E- DENSITY MATRIX OPTIONS ARE 1

 CORRELATION ENERGY ANALYSIS      =    F

 SYMMETRIES FOR THE   0 CORE,  20 ACTIVE ARE

   ACTIVE= A1    A1    A1    B2    B1    A1    A1    B1    B2    A1  
           A1    A2    B2    B1    A1    A1    A1    B2    B1    A1  

     --------------------------------------------
     PARTIAL TWO ELECTRON INTEGRAL TRANSFORMATION
     --------------------------------------------

 NUMBER OF CORE MOLECULAR ORBITALS     =    0
 NUMBER OF OCCUPIED MOLECULAR ORBITALS =   20
 TOTAL NUMBER OF MOLECULAR ORBITALS    =   20
 TOTAL NUMBER OF ATOMIC ORBITALS       =   20
 THRESHOLD FOR KEEPING TRANSFORMED 2E- INTEGRALS = 1.000E-09
 AO INTEGRALS WILL BE READ IN FROM DISK...

 PLAN A: REQUIREMENTS FOR FULLY IN-MEMORY TRANSFORMATION:
 # OF WORDS AVAILABLE =              1000000
 # OF WORDS NEEDED    =               146042

 CHOOSING IN MEMORY PARTIAL TRANSFORMATION...
 TOTAL NUMBER OF TRANSFORMED 2E- INTEGRALS KEPT =         5962
 ... END OF INTEGRAL TRANSFORMATION ...
 STEP CPU TIME =     0.01 TOTAL CPU TIME =        0.0 (    0.0 MIN)
 TOTAL WALL CLOCK TIME=        0.1 SECONDS, CPU UTILIZATION IS  66.67%

     --------------------------------------------------
          AMES LABORATORY DETERMINANTAL FULL CI
     PROGRAM WRITTEN BY JOE IVANIC AND KLAUS RUEDENBERG
     --------------------------------------------------

 THE NUMBER OF DETERMINANTS HAVING SPACE SYMMETRY A1 
 IN POINT GROUP C2V  WITH SZ=  0.0 IS           9826
 THE DETERMINANT FULL CI REQUIRES          451749 WORDS
 INITIAL CI VECTOR GUESS TIME  :          0.0
 INITIAL FULL CI ITERATION TIME:          0.0

 ITERATION      ENERGY           GRADIENT
     0       -7.9312582420     0.04829997
     1       -7.9316535206     0.00326170
     2       -7.9316586760     0.00127314
     3       -7.9316592107     0.00027890
     4       -7.9316592707     0.00013398
     5       -7.9316592966     0.00009695
     6       -7.9316593029     0.00002774
     7       -7.9316593035     0.00000981
     8       -7.9316593036     0.00000446
     9       -7.9316593037     0.00000124
    10       -7.9316593037     0.00000043

 CONVERGED STATE    1 ENERGY=       -7.9316593037 IN   10 ITERS

 ALL STATES CONVERGED.

 CI EIGENVECTORS WILL BE LABELED IN GROUP=C2V     
 PRINTING CI COEFFICIENTS LARGER THAN 5.000E-02

 STATE   1  ENERGY=        -7.9316593037  S=  0.00  SZ=  0.00  SPACE SYM=A1  

        ALPHA         |        BETA          | CI COEFFICIENT
----------------------|----------------------|---------------
 11000000000000000000 | 11000000000000000000 |   0.6748698576
 10100000000000000000 | 10100000000000000000 |  -0.4084433955
 11000000000000000000 | 10100000000000000000 |   0.3327680875
 10100000000000000000 | 11000000000000000000 |   0.3327680875
 10100000000000000000 | 10000100000000000000 |  -0.2425700834
 10000100000000000000 | 10100000000000000000 |  -0.2425700834
 10000100000000000000 | 10000100000000000000 |  -0.1179498184
 10100000000000000000 | 10000000000000001000 |  -0.0583038663
 10000000000000001000 | 10100000000000000000 |  -0.0583038663
 11000000000000000000 | 10000000010000000000 |  -0.0542056375
 10000000010000000000 | 11000000000000000000 |  -0.0542056375
 ..... DONE WITH DETERMINANT CI COMPUTATION .....
 STEP CPU TIME =     0.23 TOTAL CPU TIME =        0.3 (    0.0 MIN)
 TOTAL WALL CLOCK TIME=        0.3 SECONDS, CPU UTILIZATION IS  77.14%

     ---------------------------
     ONE PARTICLE DENSITY MATRIX
     ---------------------------

 DENSITY MATRIX WILL BE SAVED FOR   1-TH STATE WITH S= 0.00

 CI EIGENSTATE   1 TOTAL ENERGY =       -7.9316593037

          NATURAL ORBITALS IN ATOMIC ORBITAL BASIS
          ----------------------------------------

                      1          2          3          4          5
                    1.9998     1.2174     0.7824     0.0001     0.0001
                     A1         A1         A1         A1         B1  
    1  LI 1  S    0.998522  -0.127956  -0.137925   0.004068   0.000000
    2  LI 1  S   -0.006623   0.169552   0.231033   0.004803   0.000000
    3  LI 1  X   -0.000000   0.000000   0.000000  -0.000000   1.506283
    4  LI 1  Y   -0.000000   0.000000   0.000000  -0.000000   0.000000
    5  LI 1  Z   -0.000325  -0.002304   0.007046   1.164490   0.000000
    6  LI 1  S    0.000487   0.485845   0.497020   0.034598   0.000000
    7  LI 1  X   -0.000000   0.000000   0.000000  -0.000000  -0.776535
    8  LI 1  Y   -0.000000   0.000000   0.000000  -0.000000   0.000000
    9  LI 1  Z    0.000235   0.033409   0.006479  -0.270264   0.000000
   10  LI 1 XX    0.007659   0.021080   0.019103  -0.089043   0.000000
   11  LI 1 YY    0.007659   0.021080   0.019103  -0.089043   0.000000
   12  LI 1 ZZ    0.007653   0.024832   0.017431   0.072518   0.000000
   13  LI 1 XY   -0.000000   0.000000   0.000000  -0.000000   0.000000
   14  LI 1 XZ   -0.000000   0.000000   0.000000  -0.000000   0.028856
   15  LI 1 YZ   -0.000000   0.000000   0.000000  -0.000000   0.000000
   16  H  2  S    0.000079   0.291120  -0.316718  -0.145208   0.000000
   17  H  2  S    0.000268   0.466594  -0.466967   0.110402   0.000000
   18  H  2  X   -0.000000   0.000000   0.000000  -0.000000   0.063550
   19  H  2  Y   -0.000000   0.000000   0.000000  -0.000000   0.000000
   20  H  2  Z   -0.000006   0.000004   0.000009  -0.203234   0.000000

                      6          7          8          9         10
                    0.0001     0.0001     0.0000     0.0000     0.0000
                     B2         A1         A1         A1         B2  
    1  LI 1  S    0.000000   0.145173   0.029050   0.025354   0.000000
    2  LI 1  S    0.000000   9.392499   1.769558   0.901173   0.000000
    3  LI 1  X    0.000000   0.000000  -0.000000   0.000000   0.000000
    4  LI 1  Y    1.506283   0.000000  -0.000000   0.000000  -0.632527
    5  LI 1  Z    0.000000   0.187741  -1.067884   0.548632   0.000000
    6  LI 1  S    0.000000  -3.867877  -0.611796  -0.437966   0.000000
    7  LI 1  X    0.000000   0.000000  -0.000000   0.000000   0.000000
    8  LI 1  Y   -0.776535   0.000000  -0.000000   0.000000   1.201499
    9  LI 1  Z    0.000000  -0.219029   1.307429  -0.814700   0.000000
   10  LI 1 XX    0.000000  -2.647039  -0.640075  -0.181455   0.000000
   11  LI 1 YY    0.000000  -2.647039  -0.640075  -0.181454   0.000000
   12  LI 1 ZZ    0.000000  -2.657206  -0.445349  -0.386526   0.000000
   13  LI 1 XY    0.000000   0.000000  -0.000000   0.000000   0.000000
   14  LI 1 XZ    0.000000   0.000000  -0.000000   0.000000   0.000000
   15  LI 1 YZ    0.028856   0.000000  -0.000000   0.000000   0.168200
   16  H  2  S    0.000000   0.135917  -0.604892  -1.067113   0.000000
   17  H  2  S    0.000000   0.051337   0.362920   1.130346   0.000000
   18  H  2  X    0.000000   0.000000  -0.000000   0.000000   0.000000
   19  H  2  Y    0.063550   0.000000  -0.000000   0.000000   0.582009
   20  H  2  Z    0.000000  -0.008129  -0.246826   0.362602   0.000000

                     11         12         13         14         15
                    0.0000     0.0000     0.0000     0.0000     0.0000
                     B1         B2         B1         A1         A1  
    1  LI 1  S    0.000000  -0.000000  -0.000000  -0.005056  -0.001318
    2  LI 1  S    0.000000  -0.000000  -0.000000   0.144625   0.211082
    3  LI 1  X   -0.632527  -0.000000  -0.360746  -0.000000  -0.000000
    4  LI 1  Y    0.000000  -0.360746  -0.000000  -0.000000  -0.000000
    5  LI 1  Z    0.000000  -0.000000  -0.000000  -0.311906   0.073146
    6  LI 1  S    0.000000  -0.000000  -0.000000   0.076379   0.038660
    7  LI 1  X    1.201499  -0.000000   0.848997  -0.000000  -0.000000
    8  LI 1  Y    0.000000   0.848997  -0.000000  -0.000000  -0.000000
    9  LI 1  Z    0.000000  -0.000000  -0.000000   0.751610  -0.220791
   10  LI 1 XX    0.000000  -0.000000  -0.000000  -0.073437  -0.606011
   11  LI 1 YY    0.000000  -0.000000  -0.000000  -0.073438  -0.606009
   12  LI 1 ZZ    0.000000  -0.000000  -0.000000  -0.152130   0.850134
   13  LI 1 XY    0.000000  -0.000000  -0.000000  -0.000000  -0.000000
   14  LI 1 XZ    0.168200  -0.000000   0.009700  -0.000000  -0.000000
   15  LI 1 YZ    0.000000   0.009700  -0.000000  -0.000000  -0.000000
   16  H  2  S    0.000000  -0.000000  -0.000000   0.257339  -0.014918
   17  H  2  S    0.000000  -0.000000  -0.000000  -0.379237   0.037697
   18  H  2  X    0.582009  -0.000000  -0.805365  -0.000000  -0.000000
   19  H  2  Y    0.000000  -0.805365  -0.000000  -0.000000  -0.000000
   20  H  2  Z    0.000000  -0.000000  -0.000000   0.862579   0.150842

                     16         17         18         19         20
                    0.0000     0.0000     0.0000     0.0000     0.0000
                     B1         B2         A1         A2         A1  
    1  LI 1  S   -0.000000  -0.000000   0.000000   0.000000  -0.007911
    2  LI 1  S   -0.000000  -0.000000  -0.000004   0.000000   2.938463
    3  LI 1  X    0.067416  -0.000000   0.000000   0.000000  -0.000000
    4  LI 1  Y   -0.000000   0.067417   0.000000   0.000000  -0.000000
    5  LI 1  Z   -0.000000  -0.000000  -0.000000   0.000000   0.046548
    6  LI 1  S   -0.000000  -0.000000  -0.000000   0.000000   0.353526
    7  LI 1  X   -0.190726  -0.000000   0.000000   0.000000  -0.000000
    8  LI 1  Y   -0.000000  -0.190726   0.000000   0.000000  -0.000000
    9  LI 1  Z   -0.000000  -0.000000   0.000001   0.000000  -0.112322
   10  LI 1 XX   -0.000000  -0.000000  -0.866023   0.000000  -1.556322
   11  LI 1 YY   -0.000000  -0.000000   0.866028   0.000000  -1.556320
   12  LI 1 ZZ   -0.000000  -0.000000   0.000001   0.000000  -1.690566
   13  LI 1 XY   -0.000000  -0.000000   0.000000   1.000000  -0.000000
   14  LI 1 XZ    0.985283  -0.000000   0.000000   0.000000  -0.000000
   15  LI 1 YZ   -0.000000   0.985283   0.000000   0.000000  -0.000000
   16  H  2  S   -0.000000  -0.000000   0.000000   0.000000   0.088178
   17  H  2  S   -0.000000  -0.000000  -0.000000   0.000000  -0.128453
   18  H  2  X   -0.093312  -0.000000   0.000000   0.000000  -0.000000
   19  H  2  Y   -0.000000  -0.093312   0.000000   0.000000  -0.000000
   20  H  2  Z   -0.000000  -0.000000   0.000000   0.000000  -0.031468
 ..... DONE WITH ONE PARTICLE DENSITY MATRIX .....
 STEP CPU TIME =     0.00 TOTAL CPU TIME =        0.3 (    0.0 MIN)
 TOTAL WALL CLOCK TIME=        0.3 SECONDS, CPU UTILIZATION IS  77.14%

     --------------------------------------------------------
     ALDET CI PROPERTIES...FOR THE WAVEFUNCTION OF STATE    1
               USING THE EXPECTATION VALUE DENSITY
     --------------------------------------------------------

          -----------------
          ENERGY COMPONENTS
          -----------------

         WAVEFUNCTION NORMALIZATION =       1.0000000000

                ONE ELECTRON ENERGY =     -10.9458278776
                TWO ELECTRON ENERGY =       2.6533659040
           NUCLEAR REPULSION ENERGY =       0.3608026699
                                      ------------------
                       TOTAL ENERGY =      -7.9316593037

 ELECTRON-ELECTRON POTENTIAL ENERGY =       2.6533659040
  NUCLEUS-ELECTRON POTENTIAL ENERGY =     -18.8997041924
   NUCLEUS-NUCLEUS POTENTIAL ENERGY =       0.3608026699
                                      ------------------
             TOTAL POTENTIAL ENERGY =     -15.8855356185
               TOTAL KINETIC ENERGY =       7.9538763148
                 VIRIAL RATIO (V/T) =       1.9972067693

          ---------------------------------------
          MULLIKEN AND LOWDIN POPULATION ANALYSES
          ---------------------------------------

               ----- POPULATIONS IN EACH AO -----
                             MULLIKEN      LOWDIN
              1  LI 1  S      1.99844     1.98597
              2  LI 1  S      0.25709     0.26664
              3  LI 1  X      0.00008     0.00006
              4  LI 1  Y      0.00008     0.00006
              5  LI 1  Z     -0.00021     0.00047
              6  LI 1  S      0.67516     0.48238
              7  LI 1  X     -0.00000     0.00001
              8  LI 1  Y     -0.00000     0.00001
              9  LI 1  Z      0.00594     0.01192
             10  LI 1 XX      0.02004     0.08478
             11  LI 1 YY      0.02004     0.08478
             12  LI 1 ZZ      0.02156     0.08610
             13  LI 1 XY      0.00000     0.00000
             14  LI 1 XZ      0.00000     0.00000
             15  LI 1 YZ      0.00000     0.00000
             16  H  2  S      0.36871     0.39959
             17  H  2  S      0.63304     0.59715
             18  H  2  X      0.00001     0.00001
             19  H  2  Y      0.00001     0.00001
             20  H  2  Z      0.00001     0.00003

          ----- MULLIKEN ATOMIC OVERLAP POPULATIONS -----
          (OFF-DIAGONAL ELEMENTS NEED TO BE MULTIPLIED BY 2)

             1           2

    1    2.9838609
    2    0.0143526   0.9874339

          TOTAL MULLIKEN AND LOWDIN ATOMIC POPULATIONS
       ATOM         MULL.POP.    CHARGE          LOW.POP.     CHARGE
    1 LI            2.998213    0.001787         3.003209   -0.003209
    2 H             1.001787   -0.001787         0.996791    0.003209

          ---------------------
          ELECTROSTATIC MOMENTS
          ---------------------

 POINT   1           X           Y           Z (BOHR)    CHARGE
                 0.000000    0.000000    1.044372        0.00 (A.U.)
         DX          DY          DZ         /D/  (DEBYE)
     0.000000    0.000000   -0.644459    0.644459
 ...... END OF PROPERTY EVALUATION ......
 STEP CPU TIME =     0.00 TOTAL CPU TIME =        0.3 (    0.0 MIN)
 TOTAL WALL CLOCK TIME=        0.3 SECONDS, CPU UTILIZATION IS  77.14%
               580000  WORDS OF DYNAMIC MEMORY USED
 EXECUTION OF GAMESS TERMINATED NORMALLY Thu Jan 17 17:52:35 2019
 DDI: 263640 bytes (0.3 MB / 0 MWords) used by master data server.

 ----------------------------------------
 CPU timing information for all processes
 ========================================
 0: 0.223 + 0.57 = 0.280
 1: 0.10 + 0.47 = 0.57
 ----------------------------------------
 ddikick.x: exited gracefully.
unset echo
----- accounting info -----
Files used on the master node bach.ad64.riken.go.jp were:
-rw-------  1 maho  staff      280  1 17 17:52 .//LiH.631g/4.4/LiH.631g.fullCI.4.4.gamess.F05
-rw-r--r--  1 maho  staff   180016  1 17 17:52 .//LiH.631g/4.4/LiH.631g.fullCI.4.4.gamess.F08
-rw-r--r--  1 maho  staff   181704  1 17 17:52 .//LiH.631g/4.4/LiH.631g.fullCI.4.4.gamess.F09
-rw-r--r--  1 maho  staff  1832320  1 17 17:52 .//LiH.631g/4.4/LiH.631g.fullCI.4.4.gamess.F10
-rw-r--r--  1 maho  staff    78640  1 17 17:52 .//LiH.631g/4.4/LiH.631g.fullCI.4.4.gamess.F12
-rw-r--r--  1 maho  staff    14499  1 17 17:52 .//LiH.631g/4.4/LiH.631g.fullCI.4.4.gamess.dat
-rw-------  1 maho  staff      280  1 17 17:52 .//LiH.631g/4.4/LiH.631g.fullCI.4.4.gamess.inp
-rw-r--r--  1 maho  staff    43628  1 17 17:52 .//LiH.631g/4.4/LiH.631g.fullCI.4.4.gamess.log
ls: No match.
ls: No match.
ls: No match.
2019年 1月17日 木曜日 17時52分38秒 JST
0.346u 0.206s 0:03.59 15.0%	0+0k 2+1io 0pf+0w
