----- GAMESS execution script 'rungms' -----
This job is running on host localhost
under operating system Linux at Thu Jan 17 17:44:33 JST 2019
Available scratch disk space (Kbyte units) at beginning of the job is
Filesystem     1K-blocks      Used Available Use% Mounted on
/dev/sda1      895286904 141741708 708044168  17% /
GAMESS temporary binary files will be written to .
GAMESS supplementary output files will be written to .
Copying input file N2.SV/1.3/N2.SV.fullCI.1.3.gamess.inp to your run's scratch directory...
cp N2.SV/1.3/N2.SV.fullCI.1.3.gamess.inp ./N2.SV/1.3/N2.SV.fullCI.1.3.gamess.F05
unset echo
/work/pubchem/pm6/pkg/gamess_intel/ddikick.x /work/pubchem/pm6/pkg/gamess_intel/gamess.00.x N2.SV/1.3/N2.SV.fullCI.1.3.gamess -ddi 12 12 localhost localhost localhost localhost localhost localhost localhost localhost localhost localhost localhost localhost -scr .

 Distributed Data Interface kickoff program.
 Initiating 12 compute processes on 12 nodes to run the following command:
 /work/pubchem/pm6/pkg/gamess_intel/gamess.00.x N2.SV/1.3/N2.SV.fullCI.1.3.gamess 

          ******************************************************
          *         GAMESS VERSION =  5 DEC 2014 (R1)          *
          *             FROM IOWA STATE UNIVERSITY             *
          * M.W.SCHMIDT, K.K.BALDRIDGE, J.A.BOATZ, S.T.ELBERT, *
          *   M.S.GORDON, J.H.JENSEN, S.KOSEKI, N.MATSUNAGA,   *
          *          K.A.NGUYEN, S.J.SU, T.L.WINDUS,           *
          *       TOGETHER WITH M.DUPUIS, J.A.MONTGOMERY       *
          *         J.COMPUT.CHEM.  14, 1347-1363(1993)        *
          **************** 64 BIT INTEL VERSION ****************

  SINCE 1993, STUDENTS AND POSTDOCS WORKING AT IOWA STATE UNIVERSITY
  AND ALSO IN THEIR VARIOUS JOBS AFTER LEAVING ISU HAVE MADE IMPORTANT
  CONTRIBUTIONS TO THE CODE:
     IVANA ADAMOVIC, CHRISTINE AIKENS, YURI ALEXEEV, POOJA ARORA,
     ANDREY ASADCHEV, ROB BELL, PRADIPTA BANDYOPADHYAY, JONATHAN BENTZ,
     BRETT BODE, KURT BRORSEN, CALEB CARLIN, GALINA CHABAN, WEI CHEN,
     CHEOL HO CHOI, PAUL DAY, ALBERT DEFUSCO, NUWAN DESILVA, TIM DUDLEY,
     DMITRI FEDOROV, GRAHAM FLETCHER, MARK FREITAG, KURT GLAESEMANN,
     DAN KEMP, GRANT MERRILL, NORIYUKI MINEZAWA, JONATHAN MULLIN,
     TAKESHI NAGATA, SEAN NEDD, HEATHER NETZLOFF, BOSILJKA NJEGIC, RYAN OLSON,
     MIKE PAK, SPENCER PRUITT, LUKE ROSKOP, JIM SHOEMAKER, LYUDMILA SLIPCHENKO,
     TONY SMITH, SAROM SOK, JIE SONG, TETSUYA TAKETSUGU, SIMON WEBB,
     PENG XU, SOOHAENG YOO, FEDERICO ZAHARIEV

  ADDITIONAL CODE HAS BEEN PROVIDED BY COLLABORATORS IN OTHER GROUPS:
     IOWA STATE UNIVERSITY:
          JOE IVANIC, AARON WEST, LAIMUTIS BYTAUTAS, KLAUS RUEDENBERG
     UNIVERSITY OF TOKYO: KIMIHIKO HIRAO, TAKAHITO NAKAJIMA,
          TAKAO TSUNEDA, MUNEAKI KAMIYA, SUSUMU YANAGISAWA,
          KIYOSHI YAGI, MAHITO CHIBA, SEIKEN TOKURA, NAOAKI KAWAKAMI
     UNIVERSITY OF AARHUS: FRANK JENSEN
     UNIVERSITY OF IOWA: VISVALDAS KAIRYS, HUI LI
     NATIONAL INST. OF STANDARDS AND TECHNOLOGY: WALT STEVENS, DAVID GARMER
     UNIVERSITY OF PISA: BENEDETTA MENNUCCI, JACOPO TOMASI
     UNIVERSITY OF MEMPHIS: HENRY KURTZ, PRAKASHAN KORAMBATH
     UNIVERSITY OF ALBERTA: TOBY ZENG, MARIUSZ KLOBUKOWSKI
     UNIVERSITY OF NEW ENGLAND: MARK SPACKMAN
     MIE UNIVERSITY: HIROAKI UMEDA
     NAT. INST. OF ADVANCED INDUSTRIAL SCIENCE AND TECHNOLOGY: KAZUO KITAURA
     MICHIGAN STATE UNIVERSITY:
          KAROL KOWALSKI, MARTA WLOCH, JEFFREY GOUR, JESSE LUTZ,
          WEI LI, PIOTR PIECUCH
     UNIVERSITY OF SILESIA: MONIKA MUSIAL, STANISLAW KUCHARSKI
     FACULTES UNIVERSITAIRES NOTRE-DAME DE LA PAIX:
          OLIVIER QUINET, BENOIT CHAMPAGNE
     UNIVERSITY OF CALIFORNIA - SANTA BARBARA: BERNARD KIRTMAN
     INSTITUTE FOR MOLECULAR SCIENCE:
          KAZUYA ISHIMURA, MICHIO KATOUDA, AND SHIGERU NAGASE
     UNIVERSITY OF NOTRE DAME: ANNA POMOGAEVA, DAN CHIPMAN
     KYUSHU UNIVERSITY:
          HARUYUKI NAKANO,
          FENG LONG GU, JACEK KORCHOWIEC, MARCIN MAKOWSKI, AND YURIKO AOKI,
          HIROTOSHI MORI AND EISAKU MIYOSHI
     PENNSYLVANIA STATE UNIVERSITY:
          TZVETELIN IORDANOV, CHET SWALINA, JONATHAN SKONE,
          SHARON HAMMES-SCHIFFER
     WASEDA UNIVERSITY:
          MASATO KOBAYASHI, TOMOKO AKAMA, TSUGUKI TOUMA,
          TAKESHI YOSHIKAWA, YASUHIRO IKABATA, HIROMI NAKAI
     NANJING UNIVERSITY: SHUHUA LI
     UNIVERSITY OF NEBRASKA:
          PEIFENG SU, DEJUN SI, NANDUN THELLAMUREGE, YALI WANG, HUI LI
     UNIVERSITY OF ZURICH: ROBERTO PEVERATI, KIM BALDRIDGE
     N. COPERNICUS UNIVERSITY AND JACKSON STATE UNIVERSITY:
          MARIA BARYSZ
     UNIVERSITY OF COPENHAGEN: CASPER STEINMANN
     TOKYO INSTITUTE OF TECHNOLOGY: HIROYA NAKATA
     NAGOYA UNIVERSITY: YOSHIO NISHIMOTO, STEPHAN IRLE


 PARALLEL VERSION RUNNING ON       12 PROCESSORS IN       12 NODES.

 EXECUTION OF GAMESS BEGUN Thu Jan 17 17:44:33 2019

            ECHO OF THE FIRST FEW INPUT CARDS -
 INPUT CARD> $CONTRL SCFTYP=RHF CITYP=ALDET $END                                            
 INPUT CARD> $GUESS GUESS=HUCKEL $END                                                       
 INPUT CARD> $SYSTEM MWORDS=300 $END                                                        
 INPUT CARD> $CIDET SZ=0 GROUP=C2V NCORE=2 NACT=16 NELS=10 NSTGSS=6 $END                    
 INPUT CARD> $DATA                                                                          
 INPUT CARD>N2...HF...Double-zeta basis                                                     
 INPUT CARD>Cnv   2                                                                         
 INPUT CARD>                                                                                
 INPUT CARD>N     7.0    0.0      0.0     0.0                                               
 INPUT CARD>S   7                                                                           
 INPUT CARD>  1   5909.0000000              0.0011900                                       
 INPUT CARD>  2    887.5000000              0.0090990                                       
 INPUT CARD>  3    204.7000000              0.0441450                                       
 INPUT CARD>  4     59.8400000              0.1504640                                       
 INPUT CARD>  5     20.0000000              0.3567410                                       
 INPUT CARD>  6      7.1930000              0.4465330                                       
 INPUT CARD>  7      2.6860000              0.1456030                                       
 INPUT CARD>S   2                                                                           
 INPUT CARD>  1      7.1930000             -0.1604050                                       
 INPUT CARD>  2      0.7000000              1.0582150                                       
 INPUT CARD>S   1                                                                           
 INPUT CARD>  1      0.2133000              1.0000000                                       
 INPUT CARD>P   4                                                                           
 INPUT CARD>  1     26.7900000              0.0182540                                       
 INPUT CARD>  2      5.9560000              0.1164610                                       
 INPUT CARD>  3      1.7070000              0.3901780                                       
 INPUT CARD>  4      0.5314000              0.6371020                                       
 INPUT CARD>P   1                                                                           
 INPUT CARD>  1      0.1654000              1.0000000                                       
 INPUT CARD>                                                                                
 INPUT CARD>N     7.0    0.0      0.0     1.3                                               
 INPUT CARD>S   7                                                                           
 INPUT CARD>  1   5909.0000000              0.0011900                                       
 INPUT CARD>  2    887.5000000              0.0090990                                       
 INPUT CARD>  3    204.7000000              0.0441450                                       
 INPUT CARD>  4     59.8400000              0.1504640                                       
 INPUT CARD>  5     20.0000000              0.3567410                                       
 INPUT CARD>  6      7.1930000              0.4465330                                       
 INPUT CARD>  7      2.6860000              0.1456030                                       
 INPUT CARD>S   2                                                                           
 INPUT CARD>  1      7.1930000             -0.1604050                                       
 INPUT CARD>  2      0.7000000              1.0582150                                       
 INPUT CARD>S   1                                                                           
 INPUT CARD>  1      0.2133000              1.0000000                                       
 INPUT CARD>P   4                                                                           
 INPUT CARD>  1     26.7900000              0.0182540                                       
 INPUT CARD>  2      5.9560000              0.1164610                                       
 INPUT CARD>  3      1.7070000              0.3901780                                       
 INPUT CARD>  4      0.5314000              0.6371020                                       
 INPUT CARD>P   1                                                                           
  300000000 WORDS OF MEMORY AVAILABLE


     RUN TITLE
     ---------
 N2...HF...Double-zeta basis                                                     

 THE POINT GROUP OF THE MOLECULE IS CNV     
 THE ORDER OF THE PRINCIPAL AXIS IS     2

 ATOM      ATOMIC                      COORDINATES (BOHR)
           CHARGE         X                   Y                   Z
 N           7.0     0.0000000000        0.0000000000        0.0000000000
 N           7.0     0.0000000000        0.0000000000        2.4566437840

          INTERNUCLEAR DISTANCES (ANGS.)
          ------------------------------

                1 N          2 N     

   1 N       0.0000000    1.3000000 *
   2 N       1.3000000 *  0.0000000  

  * ... LESS THAN  3.000


     ATOMIC BASIS SET
     ----------------
 THE CONTRACTED PRIMITIVE FUNCTIONS HAVE BEEN UNNORMALIZED
 THE CONTRACTED BASIS FUNCTIONS ARE NOW NORMALIZED TO UNITY

  SHELL TYPE  PRIMITIVE        EXPONENT          CONTRACTION COEFFICIENT(S)

 N         

      1   S       1          5909.0000000    0.001189999548
      1   S       2           887.5000000    0.009098996542
      1   S       3           204.7000000    0.044144983225
      1   S       4            59.8400000    0.150463942825
      1   S       5            20.0000000    0.356740864442
      1   S       6             7.1930000    0.446532830321
      1   S       7             2.6860000    0.145602944672

      2   S       8             7.1930000   -0.160405033446
      2   S       9             0.7000000    1.058215220651

      3   S      10             0.2133000    1.000000000000

      4   P      11            26.7900000    0.018253998243
      4   P      12             5.9560000    0.116460988791
      4   P      13             1.7070000    0.390177962446
      4   P      14             0.5314000    0.637101938680

      5   P      15             0.1654000    1.000000000000

 N         

      6   S      16          5909.0000000    0.001189999548
      6   S      17           887.5000000    0.009098996542
      6   S      18           204.7000000    0.044144983225
      6   S      19            59.8400000    0.150463942825
      6   S      20            20.0000000    0.356740864442
      6   S      21             7.1930000    0.446532830321
      6   S      22             2.6860000    0.145602944672

      7   S      23             7.1930000   -0.160405033446
      7   S      24             0.7000000    1.058215220651

      8   S      25             0.2133000    1.000000000000

      9   P      26            26.7900000    0.018253998243
      9   P      27             5.9560000    0.116460988791
      9   P      28             1.7070000    0.390177962446
      9   P      29             0.5314000    0.637101938680

     10   P      30             0.1654000    1.000000000000

 TOTAL NUMBER OF BASIS SET SHELLS             =   10
 NUMBER OF CARTESIAN GAUSSIAN BASIS FUNCTIONS =   18
 NUMBER OF ELECTRONS                          =   14
 CHARGE OF MOLECULE                           =    0
 SPIN MULTIPLICITY                            =    1
 NUMBER OF OCCUPIED ORBITALS (ALPHA)          =    7
 NUMBER OF OCCUPIED ORBITALS (BETA )          =    7
 TOTAL NUMBER OF ATOMS                        =    2
 THE NUCLEAR REPULSION ENERGY IS       19.9459117021

 THIS MOLECULE IS RECOGNIZED AS BEING LINEAR,
 ORBITAL LZ DEGENERACY TOLERANCE ETOLLZ= 1.00E-06

     $CONTRL OPTIONS
     ---------------
 SCFTYP=RHF          RUNTYP=ENERGY       EXETYP=RUN     
 MPLEVL=       0     CITYP =ALDET        CCTYP =NONE         VBTYP =NONE    
 DFTTYP=NONE         TDDFT =NONE    
 MULT  =       1     ICHARG=       0     NZVAR =       0     COORD =UNIQUE  
 PP    =NONE         RELWFN=NONE         LOCAL =NONE         NUMGRD=       F
 ISPHER=      -1     NOSYM =       0     MAXIT =      30     UNITS =ANGS    
 PLTORB=       F     MOLPLT=       F     AIMPAC=       F     FRIEND=        
 NPRINT=       7     IREST =       0     GEOM  =INPUT   
 NORMF =       0     NORMP =       0     ITOL  =      20     ICUT  =       9
 INTTYP=BEST         GRDTYP=BEST         QMTTOL= 1.0E-06

     $SYSTEM OPTIONS
     ---------------
  REPLICATED MEMORY=   300000000 WORDS (ON EVERY NODE).
 DISTRIBUTED MEMDDI=           0 MILLION WORDS IN AGGREGATE,
 MEMDDI DISTRIBUTED OVER  12 PROCESSORS IS           0 WORDS/PROCESSOR.
 TOTAL MEMORY REQUESTED ON EACH PROCESSOR=   300000000 WORDS.
 TIMLIM=      525600.00 MINUTES, OR     365.0 DAYS.
 PARALL= T  BALTYP=  DLB     KDIAG=    0  COREFL= F
 MXSEQ2=     300 MXSEQ3=     150  mem10=         0

          ----------------
          PROPERTIES INPUT
          ----------------

     MOMENTS            FIELD           POTENTIAL          DENSITY
 IEMOM =       1   IEFLD =       0   IEPOT =       0   IEDEN =       0
 WHERE =COMASS     WHERE =NUCLEI     WHERE =NUCLEI     WHERE =NUCLEI  
 OUTPUT=BOTH       OUTPUT=BOTH       OUTPUT=BOTH       OUTPUT=BOTH    
 IEMINT=       0   IEFINT=       0                     IEDINT=       0
                                                       MORB  =       0
          EXTRAPOLATION IN EFFECT
          SOSCF IN EFFECT
 ORBITAL PRINTING OPTION: NPREO=     1    18     2     1

     -------------------------------
     INTEGRAL TRANSFORMATION OPTIONS
     -------------------------------
     NWORD  =            0
     CUTOFF = 1.0E-09     MPTRAN =       0
     DIRTRF =       F     AOINTS =DUP     

          ----------------------
          INTEGRAL INPUT OPTIONS
          ----------------------
 NOPK  =       1 NORDER=       0 SCHWRZ=       F

     ------------------------------------------
     THE POINT GROUP IS CNV, NAXIS= 2, ORDER= 4
     ------------------------------------------

     DIMENSIONS OF THE SYMMETRY SUBSPACES ARE
 A1  =   10     A2  =    0     B1  =    4     B2  =    4

 ..... DONE SETTING UP THE RUN .....
 CPU     0: STEP CPU TIME=     0.01 TOTAL CPU TIME=        0.0 (    0.0 MIN)
 TOTAL WALL CLOCK TIME=        0.0 SECONDS, CPU UTILIZATION IS  33.33%

          ********************
          1 ELECTRON INTEGRALS
          ********************
 ...... END OF ONE-ELECTRON INTEGRALS ......
 CPU     0: STEP CPU TIME=     0.01 TOTAL CPU TIME=        0.0 (    0.0 MIN)
 TOTAL WALL CLOCK TIME=        0.1 SECONDS, CPU UTILIZATION IS  28.57%

          -------------
          GUESS OPTIONS
          -------------
          GUESS =HUCKEL            NORB  =       0          NORDER=       0
          MIX   =       F          PRTMO =       F          PUNMO =       F
          TOLZ  = 1.0E-08          TOLE  = 1.0E-05
          SYMDEN=       F          PURIFY=       F

 INITIAL GUESS ORBITALS GENERATED BY HUCKEL   ROUTINE.
 HUCKEL GUESS REQUIRES      4352 WORDS.

 SYMMETRIES FOR INITIAL GUESS ORBITALS FOLLOW.   BOTH SET(S).
     7 ORBITALS ARE OCCUPIED (    2 CORE ORBITALS).
     3=A1       4=A1       5=B1       6=B2       7=A1       8=B1       9=B2  
    10=A1      11=A1      12=A1      13=A1      14=A1      15=B1      16=B1  
    17=B2  
 ...... END OF INITIAL ORBITAL SELECTION ......
 CPU     0: STEP CPU TIME=     0.00 TOTAL CPU TIME=        0.0 (    0.0 MIN)
 TOTAL WALL CLOCK TIME=        0.1 SECONDS, CPU UTILIZATION IS  28.57%

                    ----------------------
                    AO INTEGRAL TECHNOLOGY
                    ----------------------
     S,P,L SHELL ROTATED AXIS INTEGRALS, REPROGRAMMED BY
        KAZUYA ISHIMURA (IMS) AND JOSE SIERRA (SYNSTAR).
     S,P,D,L SHELL ROTATED AXIS INTEGRALS PROGRAMMED BY
        KAZUYA ISHIMURA (INSTITUTE FOR MOLECULAR SCIENCE).
     S,P,D,F,G SHELL TO TOTAL QUARTET ANGULAR MOMENTUM SUM 5,
        ERIC PROGRAM BY GRAHAM FLETCHER (ELORET AND NASA ADVANCED
        SUPERCOMPUTING DIVISION, AMES RESEARCH CENTER).
     S,P,D,F,G,L SHELL GENERAL RYS QUADRATURE PROGRAMMED BY
        MICHEL DUPUIS (PACIFIC NORTHWEST NATIONAL LABORATORY).

          --------------------
          2 ELECTRON INTEGRALS
          --------------------

 THE -PK- OPTION IS OFF, THE INTEGRALS ARE NOT IN SUPERMATRIX FORM.
 STORING   15000 INTEGRALS/RECORD ON DISK, USING 12 BYTES/INTEGRAL.
 TWO ELECTRON INTEGRAL EVALUATION REQUIRES   89411 WORDS OF MEMORY.
 II,JST,KST,LST =  1  1  1  1 NREC =         1 INTLOC =    1
 II,JST,KST,LST =  2  1  1  1 NREC =         1 INTLOC =    2
 II,JST,KST,LST =  3  1  1  1 NREC =         1 INTLOC =    7
 II,JST,KST,LST =  4  1  1  1 NREC =         1 INTLOC =   22
 II,JST,KST,LST =  5  1  1  1 NREC =         1 INTLOC =   67
 II,JST,KST,LST =  6  1  1  1 NREC =         1 INTLOC =   67
 II,JST,KST,LST =  7  1  1  1 NREC =         1 INTLOC =   67
 II,JST,KST,LST =  8  1  1  1 NREC =         1 INTLOC =  128
 II,JST,KST,LST =  9  1  1  1 NREC =         1 INTLOC =  204
 II,JST,KST,LST = 10  1  1  1 NREC =         1 INTLOC =  435
 TOTAL NUMBER OF NONZERO TWO-ELECTRON INTEGRALS =                4349
         12 INTEGRAL RECORDS WERE STORED ON DISK FILE  8.
  ...... END OF TWO-ELECTRON INTEGRALS .....
 CPU     0: STEP CPU TIME=     0.02 TOTAL CPU TIME=        0.0 (    0.0 MIN)
 TOTAL WALL CLOCK TIME=        0.1 SECONDS, CPU UTILIZATION IS  44.44%

          --------------------------
                 RHF SCF CALCULATION
          --------------------------

     NUCLEAR ENERGY =        19.9459117021
     MAXIT =   30     NPUNCH=    2
     EXTRAP=T  DAMP=F  SHIFT=F  RSTRCT=F  DIIS=F  DEM=F  SOSCF=T
     DENSITY MATRIX CONV=  1.00E-06
     SOSCF WILL OPTIMIZE      77 ORBITAL ROTATIONS, SOGTOL=   0.250
     MEMORY REQUIRED FOR RHF ITERS=     32828 WORDS.

 ITER EX DEM     TOTAL ENERGY        E CHANGE  DENSITY CHANGE     ORB. GRAD
   1  0  0     -108.5628404005  -108.5628404005   0.231235759   0.000000000
          ---------------START SECOND ORDER SCF---------------
   2  1  0     -108.7833779265    -0.2205375261   0.054092250   0.051262411
   3  2  0     -108.7944942060    -0.0111162794   0.021286277   0.013654067
   4  3  0     -108.7952578932    -0.0007636873   0.002789046   0.001132732
   5  4  0     -108.7952633930    -0.0000054998   0.000251027   0.000223414
   6  5  0     -108.7952635832    -0.0000001901   0.000046328   0.000031164
   7  6  0     -108.7952635880    -0.0000000048   0.000003495   0.000002892
   8  7  0     -108.7952635880    -0.0000000000   0.000000669   0.000000510
   9  8  0     -108.7952635880    -0.0000000000   0.000000075   0.000000056

          -----------------
          DENSITY CONVERGED
          -----------------
     TIME TO FORM FOCK OPERATORS=       0.0 SECONDS (       0.0 SEC/ITER)
     TIME TO SOLVE SCF EQUATIONS=       0.0 SECONDS (       0.0 SEC/ITER)

 FINAL RHF ENERGY IS     -108.7952635880 AFTER   9 ITERATIONS

 LZ VALUE ANALYSIS FOR THE MOS
 ----------------------------------------
 MO     1 (    1) HAS LZ(WEIGHT)= 0.00(100.0%) 
 MO     2 (    2) HAS LZ(WEIGHT)= 0.00(100.0%) 
 MO     3 (    3) HAS LZ(WEIGHT)= 0.00(100.0%) 
 MO     4 (    4) HAS LZ(WEIGHT)= 0.00(100.0%) 
 MO     5 (    5) HAS LZ(WEIGHT)= 0.00(100.0%) 
 MO     6 (    6) HAS LZ(WEIGHT)=-1.00( 50.0%)  1.00( 50.0%) 
 MO     7 (    6) HAS LZ(WEIGHT)=-1.00( 50.0%)  1.00( 50.0%) 
 MO     8 (    7) HAS LZ(WEIGHT)=-1.00( 50.0%)  1.00( 50.0%) 
 MO     9 (    7) HAS LZ(WEIGHT)=-1.00( 50.0%)  1.00( 50.0%) 
 MO    10 (    8) HAS LZ(WEIGHT)= 0.00(100.0%) 
 MO    11 (    9) HAS LZ(WEIGHT)=-1.00( 50.0%)  1.00( 50.0%) 
 MO    12 (    9) HAS LZ(WEIGHT)=-1.00( 50.0%)  1.00( 50.0%) 
 MO    13 (   10) HAS LZ(WEIGHT)= 0.00(100.0%) 
 MO    14 (   11) HAS LZ(WEIGHT)=-1.00( 50.0%)  1.00( 50.0%) 
 MO    15 (   11) HAS LZ(WEIGHT)=-1.00( 50.0%)  1.00( 50.0%) 
 MO    16 (   12) HAS LZ(WEIGHT)= 0.00(100.0%) 
 MO    17 (   13) HAS LZ(WEIGHT)= 0.00(100.0%) 
 MO    18 (   14) HAS LZ(WEIGHT)= 0.00(100.0%) 

          ------------
          EIGENVECTORS
          ------------

                      1          2          3          4          5
                  -15.7636   -15.7622    -1.3799    -0.8388    -0.6045
                     A1         A1         A1         A1         A1  
    1  N  1  S    0.706714   0.706877  -0.161910   0.166151  -0.058873
    2  N  1  S    0.000776   0.000196   0.369516  -0.389764   0.106971
    3  N  1  S    0.000840   0.001964   0.219183  -0.448425   0.277201
    4  N  1  X    0.000000   0.000000   0.000000   0.000000   0.000000
    5  N  1  Y    0.000000   0.000000   0.000000   0.000000   0.000000
    6  N  1  Z    0.001576   0.001307   0.210078   0.180783  -0.530100
    7  N  1  X    0.000000   0.000000   0.000000   0.000000   0.000000
    8  N  1  Y    0.000000   0.000000   0.000000   0.000000   0.000000
    9  N  1  Z   -0.000719   0.000193  -0.000299   0.022831  -0.129963
   10  N  2  S    0.706714  -0.706877  -0.161910  -0.166151  -0.058873
   11  N  2  S    0.000776  -0.000196   0.369516   0.389764   0.106971
   12  N  2  S    0.000840  -0.001964   0.219183   0.448425   0.277201
   13  N  2  X    0.000000   0.000000   0.000000   0.000000   0.000000
   14  N  2  Y    0.000000   0.000000   0.000000   0.000000   0.000000
   15  N  2  Z   -0.001576   0.001307  -0.210078   0.180783   0.530100
   16  N  2  X    0.000000   0.000000   0.000000   0.000000   0.000000
   17  N  2  Y    0.000000   0.000000   0.000000   0.000000   0.000000
   18  N  2  Z    0.000719   0.000193   0.000299   0.022831   0.129963

                      6          7          8          9         10
                   -0.5505    -0.5505     0.0539     0.0539     0.3636
                     B2         B1         B2         B1         A1  
    1  N  1  S    0.000000   0.000000   0.000000   0.000000   0.104014
    2  N  1  S    0.000000   0.000000   0.000000   0.000000  -0.150979
    3  N  1  S    0.000000   0.000000   0.000000   0.000000  -1.927566
    4  N  1  X    0.000000   0.494936   0.000000   0.527898   0.000000
    5  N  1  Y    0.494936   0.000000   0.527898   0.000000   0.000000
    6  N  1  Z    0.000000   0.000000   0.000000   0.000000  -0.230047
    7  N  1  X    0.000000   0.207916   0.000000   0.503843   0.000000
    8  N  1  Y    0.207916   0.000000   0.503843   0.000000   0.000000
    9  N  1  Z    0.000000   0.000000   0.000000   0.000000  -1.557277
   10  N  2  S    0.000000   0.000000   0.000000   0.000000  -0.104014
   11  N  2  S    0.000000   0.000000   0.000000   0.000000   0.150979
   12  N  2  S    0.000000   0.000000   0.000000   0.000000   1.927566
   13  N  2  X    0.000000   0.494936   0.000000  -0.527898   0.000000
   14  N  2  Y    0.494936   0.000000  -0.527898   0.000000   0.000000
   15  N  2  Z    0.000000   0.000000   0.000000   0.000000  -0.230047
   16  N  2  X    0.000000   0.207916   0.000000  -0.503843   0.000000
   17  N  2  Y    0.207916   0.000000  -0.503843   0.000000   0.000000
   18  N  2  Z    0.000000   0.000000   0.000000   0.000000  -1.557277

                     11         12         13         14         15
                    0.6292     0.6292     0.6333     0.7321     0.7321
                     B2         B1         A1         B2         B1  
    1  N  1  S    0.000000   0.000000   0.015202   0.000000   0.000000
    2  N  1  S    0.000000   0.000000   0.059610   0.000000   0.000000
    3  N  1  S    0.000000   0.000000   0.258858   0.000000   0.000000
    4  N  1  X    0.000000   0.651393   0.000000   0.000000   0.678900
    5  N  1  Y    0.651393   0.000000   0.000000   0.678900   0.000000
    6  N  1  Z    0.000000   0.000000   0.512159   0.000000   0.000000
    7  N  1  X    0.000000  -0.648335   0.000000   0.000000  -1.189730
    8  N  1  Y   -0.648335   0.000000   0.000000  -1.189730   0.000000
    9  N  1  Z    0.000000   0.000000  -1.001435   0.000000   0.000000
   10  N  2  S    0.000000   0.000000   0.015202   0.000000   0.000000
   11  N  2  S    0.000000   0.000000   0.059610   0.000000   0.000000
   12  N  2  S    0.000000   0.000000   0.258858   0.000000   0.000000
   13  N  2  X    0.000000   0.651393   0.000000   0.000000  -0.678900
   14  N  2  Y    0.651393   0.000000   0.000000  -0.678900   0.000000
   15  N  2  Z    0.000000   0.000000  -0.512159   0.000000   0.000000
   16  N  2  X    0.000000  -0.648335   0.000000   0.000000   1.189730
   17  N  2  Y   -0.648335   0.000000   0.000000   1.189730   0.000000
   18  N  2  Z    0.000000   0.000000   1.001435   0.000000   0.000000

                     16         17         18
                    0.7388     0.9199     1.4966
                     A1         A1         A1  
    1  N  1  S   -0.038446  -0.083401   0.046296
    2  N  1  S    0.177295   1.156085  -1.481320
    3  N  1  S   -0.408360  -0.968011   3.936731
    4  N  1  X    0.000000   0.000000   0.000000
    5  N  1  Y    0.000000   0.000000   0.000000
    6  N  1  Z    0.920120  -0.059794   0.110405
    7  N  1  X    0.000000   0.000000   0.000000
    8  N  1  Y    0.000000   0.000000   0.000000
    9  N  1  Z   -0.714104  -0.026453   1.563237
   10  N  2  S    0.038446  -0.083401  -0.046296
   11  N  2  S   -0.177295   1.156085   1.481320
   12  N  2  S    0.408360  -0.968011  -3.936731
   13  N  2  X    0.000000   0.000000   0.000000
   14  N  2  Y    0.000000   0.000000   0.000000
   15  N  2  Z    0.920120   0.059794   0.110405
   16  N  2  X    0.000000   0.000000   0.000000
   17  N  2  Y    0.000000   0.000000   0.000000
   18  N  2  Z   -0.714104   0.026453   1.563237
 ...... END OF RHF CALCULATION ......
 CPU     0: STEP CPU TIME=     0.00 TOTAL CPU TIME=        0.0 (    0.0 MIN)
 TOTAL WALL CLOCK TIME=        0.1 SECONDS, CPU UTILIZATION IS  40.00%

     ----------------------------------------------------------------
     PROPERTY VALUES FOR THE RHF   SELF-CONSISTENT FIELD WAVEFUNCTION
     ----------------------------------------------------------------

          -----------------
          ENERGY COMPONENTS
          -----------------

         WAVEFUNCTION NORMALIZATION =       1.0000000000

                ONE ELECTRON ENERGY =    -186.5821886098
                TWO ELECTRON ENERGY =      57.8410133197
           NUCLEAR REPULSION ENERGY =      19.9459117021
                                      ------------------
                       TOTAL ENERGY =    -108.7952635880

 ELECTRON-ELECTRON POTENTIAL ENERGY =      57.8410133197
  NUCLEUS-ELECTRON POTENTIAL ENERGY =    -294.5454166490
   NUCLEUS-NUCLEUS POTENTIAL ENERGY =      19.9459117021
                                      ------------------
             TOTAL POTENTIAL ENERGY =    -216.7584916272
               TOTAL KINETIC ENERGY =     107.9632280392
                 VIRIAL RATIO (V/T) =       2.0077066568

  ...... PI ENERGY ANALYSIS ......

 ENERGY ANALYSIS:
            FOCK ENERGY=    -70.9001620549
          BARE H ENERGY=   -186.5821886098
     ELECTRONIC ENERGY =   -128.7411753324
         KINETIC ENERGY=    107.9632280392
          N-N REPULSION=     19.9459117021
           TOTAL ENERGY=   -108.7952636302
        SIGMA PART(1+2)=   -112.9379953325
               (K,V1,2)=    101.7988459729   -258.9768434973     44.2400021920
           PI PART(1+2)=    -15.8031799999
               (K,V1,2)=      6.1643820664    -35.5685731517     13.6010110854
  SIGMA SKELETON, ERROR=    -92.9920836303     -0.0000000000
             MIXED PART= 0.00000E+00 0.00000E+00 0.00000E+00 0.00000E+00
 ...... END OF PI ENERGY ANALYSIS ......

          ---------------------------------------
          MULLIKEN AND LOWDIN POPULATION ANALYSES
          ---------------------------------------

               ----- POPULATIONS IN EACH AO -----
                             MULLIKEN      LOWDIN
              1  N  1  S      1.99992     1.99500
              2  N  1  S      0.98458     0.90933
              3  N  1  S      0.89981     0.76628
              4  N  1  X      0.70320     0.63900
              5  N  1  Y      0.70320     0.63900
              6  N  1  Z      1.02343     0.97514
              7  N  1  X      0.29680     0.36100
              8  N  1  Y      0.29680     0.36100
              9  N  1  Z      0.09227     0.35425
             10  N  2  S      1.99992     1.99500
             11  N  2  S      0.98458     0.90933
             12  N  2  S      0.89981     0.76628
             13  N  2  X      0.70320     0.63900
             14  N  2  Y      0.70320     0.63900
             15  N  2  Z      1.02343     0.97514
             16  N  2  X      0.29680     0.36100
             17  N  2  Y      0.29680     0.36100
             18  N  2  Z      0.09227     0.35425

          ----- MULLIKEN ATOMIC OVERLAP POPULATIONS -----
          (OFF-DIAGONAL ELEMENTS NEED TO BE MULTIPLIED BY 2)

             1           2

    1    6.5339650
    2    0.4660350   6.5339650

          TOTAL MULLIKEN AND LOWDIN ATOMIC POPULATIONS
       ATOM         MULL.POP.    CHARGE          LOW.POP.     CHARGE
    1 N             7.000000    0.000000         7.000000    0.000000
    2 N             7.000000   -0.000000         7.000000   -0.000000

          ---------------------
          ELECTROSTATIC MOMENTS
          ---------------------

 POINT   1           X           Y           Z (BOHR)    CHARGE
                 0.000000    0.000000    1.228322        0.00 (A.U.)
         DX          DY          DZ         /D/  (DEBYE)
     0.000000    0.000000   -0.000000    0.000000
 ...... END OF PROPERTY EVALUATION ......
 CPU     0: STEP CPU TIME=     0.00 TOTAL CPU TIME=        0.0 (    0.0 MIN)
 TOTAL WALL CLOCK TIME=        0.1 SECONDS, CPU UTILIZATION IS  28.57%

 DETERMINANT CI OPTIONS   NRNFG   NPFLG
 INTEGRAL TRANSFORMATION    1       0
 DIAGONALIZE HAMILTONIAN    1       0
 FORM 1E- DENSITY MATRIX    1       0
 FORM 2E- DENSITY MATRIX    0       0

     --------------------------------------------------
          AMES LABORATORY DETERMINANTAL FULL CI
     PROGRAM WRITTEN BY JOE IVANIC AND KLAUS RUEDENBERG
     --------------------------------------------------

 THE POINT GROUP                  =   C2V     
 THE STATE SYMMETRY               =   A1      
 NUMBER OF CORE ORBITALS          =    2
 NUMBER OF ACTIVE ORBITALS        =   16
 NUMBER OF ALPHA ELECTRONS        =    7 (   5 ACTIVE)
 NUMBER OF BETA ELECTRONS         =    7 (   5 ACTIVE)
 NUMBER OF OCCUPIED ORBITALS      =   18
 NUMBER OF CI STATES REQUESTED    =    1
 NUMBER OF CI STARTING VECTORS    =    6
 MAX. NO. OF CI EXPANSION VECTORS =   12
 SIZE OF INITIAL CI GUESS MATRIX  =  300
 MAX. NO. OF CI ITERS/STATE       =  100
 CI DIAGONALIZATION CRITERION     = 1.00E-06
 CI PROPERTIES WILL BE FOUND FOR ROOT NUMBER   1
 1E- DENSITY MATRIX OPTIONS ARE 1

 CORRELATION ENERGY ANALYSIS      =    F

 SYMMETRIES FOR THE   2 CORE,  16 ACTIVE ARE

     CORE= A1    A1  

   ACTIVE= A1    A1    A1    B2    B1    B2    B1    A1    B2    B1  
           A1    B2    B1    A1    A1    A1  

     --------------------------------------------
     PARTIAL TWO ELECTRON INTEGRAL TRANSFORMATION
     --------------------------------------------

 NUMBER OF CORE MOLECULAR ORBITALS     =    2
 NUMBER OF OCCUPIED MOLECULAR ORBITALS =   18
 TOTAL NUMBER OF MOLECULAR ORBITALS    =   18
 TOTAL NUMBER OF ATOMIC ORBITALS       =   18
 THRESHOLD FOR KEEPING TRANSFORMED 2E- INTEGRALS = 1.000E-09

 -------------------------------     ------------------------------
 DISTRIBUTED DATA TRANSFORMATION     PROGRAM WRITTEN BY G. FLETCHER
 -------------------------------     ------------------------------

 THE DISTRIBUTED MEMORY REQUIRED FOR THIS STEP IS MEMDDI=         1 MWORDS
 CREATING DISTRIBUTED STORAGE FOR [OCC OCC|OCC OCC] INTEGRALS
 DDI: Creating Array [0] - 171 x 171 = 29241 words.
 CREATING WORKSPACE OF SIZE VVOO
 DDI: Creating Array [1] - 171 x 171 = 29241 words.
 FOR   12 PROCESSORS, THE REPLICATED MEMORY NEEDED IS       58507 WORDS.

      DIRECT 4-INDEX TRANSFORMATION 
      SCHWARZ INEQUALITY TEST SKIPPED          0 INTEGRAL BLOCKS
 ----- FROZEN CORE ENERGY =       -99.2336851753
 ... END OF INTEGRAL TRANSFORMATION ...
 CPU     0: STEP CPU TIME=     0.01 TOTAL CPU TIME=        0.0 (    0.0 MIN)
 TOTAL WALL CLOCK TIME=        0.2 SECONDS, CPU UTILIZATION IS  27.78%

     --------------------------------------------------
          AMES LABORATORY DETERMINANTAL FULL CI
     PROGRAM WRITTEN BY JOE IVANIC AND KLAUS RUEDENBERG
     --------------------------------------------------

 THE NUMBER OF DETERMINANTS HAVING SPACE SYMMETRY A1 
 IN POINT GROUP C2V  WITH SZ=  0.0 IS        4777056
 THE DETERMINANT FULL CI REQUIRES       119865995 WORDS
 INITIAL CI VECTOR GUESS TIME  :          1.4
 INITIAL FULL CI ITERATION TIME:          5.7

 ITERATION      ENERGY           GRADIENT
     0     -108.9591681536     0.55506800
     1     -109.0661437188     0.21455794
     2     -109.0768891669     0.08822044
     3     -109.0784432015     0.03892222
     4     -109.0787751502     0.01822327
     5     -109.0788518433     0.00906752
     6     -109.0788714373     0.00434454
     7     -109.0788749186     0.00219555
     8     -109.0788763431     0.00131103
     9     -109.0788767712     0.00068739
    10     -109.0788768666     0.00034186
    11     -109.0788768904     0.00014338
    12     -109.0788768950     0.00005330
    13     -109.0788768956     0.00002474
    14     -109.0788768958     0.00001324
    15     -109.0788768959     0.00000703
    16     -109.0788768959     0.00000328
    17     -109.0788768959     0.00000149
    18     -109.0788768959     0.00000083

 CONVERGED STATE    1 ENERGY=     -109.0788768959 IN   18 ITERS

 ALL STATES CONVERGED.

 CI EIGENVECTORS WILL BE LABELED IN GROUP=C2V     
 PRINTING CI COEFFICIENTS LARGER THAN  0.050000

 STATE   1  ENERGY=      -109.0788768959  S=  0.00  SZ=  0.00  SPACE SYM=A1  

      ALPHA       |      BETA        | COEFFICIENT
------------------|------------------|------------
 1111100000000000 | 1111100000000000 |   0.9164822
 1110110000000000 | 1110110000000000 |  -0.1546195
 1111001000000000 | 1111001000000000 |  -0.1546195
 1110110000000000 | 1111001000000000 |  -0.0907730
 1111001000000000 | 1110110000000000 |  -0.0907730
 1011101000000000 | 1011101000000000 |  -0.0521132
 1011110000000000 | 1011110000000000 |  -0.0521132
 1110101000000000 | 1111010000000000 |  -0.0509808
 1111010000000000 | 1110101000000000 |  -0.0509808
 1110011000000000 | 1110011000000000 |   0.0500392
 ..... DONE WITH DETERMINANT CI COMPUTATION .....
 CPU     0: STEP CPU TIME=    55.40 TOTAL CPU TIME=       55.5 (    0.9 MIN)
 TOTAL WALL CLOCK TIME=       72.0 SECONDS, CPU UTILIZATION IS  77.04%

     ---------------------------
     ONE PARTICLE DENSITY MATRIX
     ---------------------------

 DENSITY MATRIX WILL BE SAVED FOR   1-TH STATE WITH S= 0.00

 CI EIGENSTATE   1 TOTAL ENERGY =     -109.0788768959

          NATURAL ORBITALS IN ATOMIC ORBITAL BASIS
          ----------------------------------------

                      1          2          3          4          5
                    2.0000     2.0000     1.9840     1.9697     1.9547
                     A1         A1         A1         A1         A1  
    1  N  1  S    0.706714   0.706877  -0.171247   0.166482   0.009591
    2  N  1  S    0.000776   0.000196   0.372315  -0.389091  -0.055676
    3  N  1  S    0.000840   0.001964   0.319487  -0.447044   0.180925
    4  N  1  X    0.000000   0.000000   0.000000   0.000000   0.000000
    5  N  1  Y    0.000000   0.000000   0.000000   0.000000   0.000000
    6  N  1  Z    0.001576   0.001307  -0.009169   0.165700  -0.566301
    7  N  1  X    0.000000   0.000000   0.000000   0.000000   0.000000
    8  N  1  Y    0.000000   0.000000   0.000000   0.000000   0.000000
    9  N  1  Z   -0.000719   0.000193  -0.056022   0.033834  -0.125559
   10  N  2  S    0.706714  -0.706877  -0.171247  -0.166482   0.009591
   11  N  2  S    0.000776  -0.000196   0.372315   0.389091  -0.055676
   12  N  2  S    0.000840  -0.001964   0.319487   0.447044   0.180925
   13  N  2  X    0.000000   0.000000   0.000000   0.000000   0.000000
   14  N  2  Y    0.000000   0.000000   0.000000   0.000000   0.000000
   15  N  2  Z   -0.001576   0.001307   0.009169   0.165700   0.566301
   16  N  2  X    0.000000   0.000000   0.000000   0.000000   0.000000
   17  N  2  Y    0.000000   0.000000   0.000000   0.000000   0.000000
   18  N  2  Z    0.000719   0.000193   0.056022   0.033834   0.125559

                      6          7          8          9         10
                    1.8750     1.8750     0.1268     0.1268     0.0426
                     B2         B1         B2         B1         A1  
    1  N  1  S    0.000000   0.000000   0.000000   0.000000  -0.088045
    2  N  1  S    0.000000   0.000000   0.000000   0.000000   0.324071
    3  N  1  S    0.000000   0.000000   0.000000   0.000000   0.391672
    4  N  1  X    0.000000   0.511246   0.000000   0.706992   0.000000
    5  N  1  Y    0.511246   0.000000   0.706992   0.000000   0.000000
    6  N  1  Z    0.000000   0.000000   0.000000   0.000000   0.896834
    7  N  1  X    0.000000   0.191459   0.000000   0.124403   0.000000
    8  N  1  Y    0.191459   0.000000   0.124403   0.000000   0.000000
    9  N  1  Z    0.000000   0.000000   0.000000   0.000000   0.103787
   10  N  2  S    0.000000   0.000000   0.000000   0.000000   0.088045
   11  N  2  S    0.000000   0.000000   0.000000   0.000000  -0.324071
   12  N  2  S    0.000000   0.000000   0.000000   0.000000  -0.391672
   13  N  2  X    0.000000   0.511246   0.000000  -0.706992   0.000000
   14  N  2  Y    0.511246   0.000000  -0.706992   0.000000   0.000000
   15  N  2  Z    0.000000   0.000000   0.000000   0.000000   0.896834
   16  N  2  X    0.000000   0.191459   0.000000  -0.124403   0.000000
   17  N  2  Y    0.191459   0.000000  -0.124403   0.000000   0.000000
   18  N  2  Z    0.000000   0.000000   0.000000   0.000000   0.103787

                     11         12         13         14         15
                    0.0129     0.0095     0.0076     0.0076     0.0039
                     A1         A1         B1         B2         A1  
    1  N  1  S   -0.082200   0.080363   0.000000   0.000000  -0.026332
    2  N  1  S    0.990829  -0.932389   0.000000   0.000000   0.603830
    3  N  1  S   -0.969024   0.979680   0.000000   0.000000  -0.234781
    4  N  1  X    0.000000   0.000000  -0.638672   0.000000   0.000000
    5  N  1  Y    0.000000   0.000000   0.000000  -0.638672   0.000000
    6  N  1  Z   -0.303445   0.332915   0.000000   0.000000   0.422091
    7  N  1  X    0.000000   0.000000   0.653384   0.000000   0.000000
    8  N  1  Y    0.000000   0.000000   0.000000   0.653384   0.000000
    9  N  1  Z    0.452675  -0.370537   0.000000   0.000000  -0.892549
   10  N  2  S   -0.082200  -0.080363   0.000000   0.000000  -0.026332
   11  N  2  S    0.990829   0.932389   0.000000   0.000000   0.603830
   12  N  2  S   -0.969024  -0.979680   0.000000   0.000000  -0.234781
   13  N  2  X    0.000000   0.000000  -0.638672   0.000000   0.000000
   14  N  2  Y    0.000000   0.000000   0.000000  -0.638672   0.000000
   15  N  2  Z    0.303445   0.332915   0.000000   0.000000  -0.422091
   16  N  2  X    0.000000   0.000000   0.653384   0.000000   0.000000
   17  N  2  Y    0.000000   0.000000   0.000000   0.653384   0.000000
   18  N  2  Z   -0.452675  -0.370537   0.000000   0.000000   0.892549

                     16         17         18
                    0.0016     0.0016     0.0007
                     B1         B2         A1  
    1  N  1  S    0.000000   0.000000   0.010965
    2  N  1  S    0.000000   0.000000   1.129021
    3  N  1  S    0.000000   0.000000  -4.274128
    4  N  1  X    0.489638   0.000000   0.000000
    5  N  1  Y    0.000000   0.489638   0.000000
    6  N  1  Z    0.000000   0.000000   0.042601
    7  N  1  X   -1.286017   0.000000   0.000000
    8  N  1  Y    0.000000  -1.286017   0.000000
    9  N  1  Z    0.000000   0.000000  -2.286935
   10  N  2  S    0.000000   0.000000  -0.010965
   11  N  2  S    0.000000   0.000000  -1.129021
   12  N  2  S    0.000000   0.000000   4.274128
   13  N  2  X   -0.489638   0.000000   0.000000
   14  N  2  Y    0.000000  -0.489638   0.000000
   15  N  2  Z    0.000000   0.000000   0.042601
   16  N  2  X    1.286017   0.000000   0.000000
   17  N  2  Y    0.000000   1.286017   0.000000
   18  N  2  Z    0.000000   0.000000  -2.286935
 ..... DONE WITH ONE PARTICLE DENSITY MATRIX .....
 CPU     0: STEP CPU TIME=     1.00 TOTAL CPU TIME=       56.4 (    0.9 MIN)
 TOTAL WALL CLOCK TIME=       73.4 SECONDS, CPU UTILIZATION IS  76.90%

     --------------------------------------------------------
     ALDET CI PROPERTIES...FOR THE WAVEFUNCTION OF STATE    1
               USING THE EXPECTATION VALUE DENSITY
     --------------------------------------------------------

          -----------------
          ENERGY COMPONENTS
          -----------------

         WAVEFUNCTION NORMALIZATION =       1.0000000000

                ONE ELECTRON ENERGY =    -186.7654707355
                TWO ELECTRON ENERGY =      57.7406821375
           NUCLEAR REPULSION ENERGY =      19.9459117021
                                      ------------------
                       TOTAL ENERGY =    -109.0788768959

 ELECTRON-ELECTRON POTENTIAL ENERGY =      57.7406821375
  NUCLEUS-ELECTRON POTENTIAL ENERGY =    -295.2308098795
   NUCLEUS-NUCLEUS POTENTIAL ENERGY =      19.9459117021
                                      ------------------
             TOTAL POTENTIAL ENERGY =    -217.5442160399
               TOTAL KINETIC ENERGY =     108.4653391440
                 VIRIAL RATIO (V/T) =       2.0056565328

          ---------------------------------------
          MULLIKEN AND LOWDIN POPULATION ANALYSES
          ---------------------------------------

               ----- POPULATIONS IN EACH AO -----
                             MULLIKEN      LOWDIN
              1  N  1  S      1.99992     1.99464
              2  N  1  S      0.96675     0.89868
              3  N  1  S      0.91259     0.77584
              4  N  1  X      0.74677     0.68091
              5  N  1  Y      0.74677     0.68091
              6  N  1  Z      1.00107     0.95755
              7  N  1  X      0.25874     0.32459
              8  N  1  Y      0.25874     0.32459
              9  N  1  Z      0.10865     0.36227
             10  N  2  S      1.99992     1.99464
             11  N  2  S      0.96675     0.89868
             12  N  2  S      0.91259     0.77584
             13  N  2  X      0.74677     0.68091
             14  N  2  Y      0.74677     0.68091
             15  N  2  Z      1.00107     0.95755
             16  N  2  X      0.25874     0.32459
             17  N  2  Y      0.25874     0.32459
             18  N  2  Z      0.10865     0.36227

          ----- MULLIKEN ATOMIC OVERLAP POPULATIONS -----
          (OFF-DIAGONAL ELEMENTS NEED TO BE MULTIPLIED BY 2)

             1           2

    1    6.6461903
    2    0.3538097   6.6461903

          TOTAL MULLIKEN AND LOWDIN ATOMIC POPULATIONS
       ATOM         MULL.POP.    CHARGE          LOW.POP.     CHARGE
    1 N             7.000000    0.000000         7.000000    0.000000
    2 N             7.000000    0.000000         7.000000    0.000000

          ---------------------
          ELECTROSTATIC MOMENTS
          ---------------------

 POINT   1           X           Y           Z (BOHR)    CHARGE
                 0.000000    0.000000    1.228322        0.00 (A.U.)
         DX          DY          DZ         /D/  (DEBYE)
     0.000000    0.000000    0.000000    0.000000
 ...... END OF PROPERTY EVALUATION ......
 CPU     0: STEP CPU TIME=     0.01 TOTAL CPU TIME=       56.5 (    0.9 MIN)
 TOTAL WALL CLOCK TIME=       73.9 SECONDS, CPU UTILIZATION IS  76.42%
             119866895  WORDS OF DYNAMIC MEMORY USED
 EXECUTION OF GAMESS TERMINATED NORMALLY Thu Jan 17 17:45:47 2019
 DDI: 305760 bytes (0.3 MB / 0 MWords) used by master data server.

 ----------------------------------------
 CPU timing information for all processes
 ========================================
 0: 52.696 + 3.904 = 56.600
 1: 52.668 + 4.508 = 57.176
 2: 53.220 + 4.512 = 57.732
 3: 52.560 + 4.356 = 56.916
 4: 52.100 + 5.64 = 57.164
 5: 53.224 + 3.688 = 56.912
 6: 52.152 + 4.340 = 56.492
 7: 52.696 + 4.112 = 56.808
 8: 53.152 + 4.40 = 57.192
 9: 52.376 + 4.356 = 56.732
 10: 52.136 + 3.520 = 55.656
 11: 52.408 + 4.424 = 56.832
 12: 0.160 + 1.924 = 2.84
 13: 0.04 + 0.04 = 0.08
 14: 0.04 + 0.00 = 0.04
 15: 0.08 + 0.00 = 0.08
 16: 0.00 + 0.04 = 0.04
 17: 0.04 + 0.00 = 0.04
 18: 0.04 + 0.04 = 0.08
 19: 0.04 + 0.00 = 0.04
 20: 0.00 + 0.04 = 0.04
 21: 0.00 + 0.04 = 0.04
 22: 0.04 + 0.00 = 0.04
 23: 0.00 + 0.04 = 0.04
 ----------------------------------------
 ddikick.x: exited gracefully.
unset echo
----- accounting info -----
Files used on the master node localhost were:
-rw-rw-r-- 1 maho maho    13429 Jan 17 17:45 ./N2.SV/1.3/N2.SV.fullCI.1.3.gamess.dat
-rw------- 1 maho maho     1813 Jan 17 17:44 ./N2.SV/1.3/N2.SV.fullCI.1.3.gamess.F05
-rw-rw-r-- 1 maho maho   180016 Jan 17 17:44 ./N2.SV/1.3/N2.SV.fullCI.1.3.gamess.F08
-rw-rw-r-- 1 maho maho     1376 Jan 17 17:44 ./N2.SV/1.3/N2.SV.fullCI.1.3.gamess.F09
-rw-rw-r-- 1 maho maho  1865040 Jan 17 17:45 ./N2.SV/1.3/N2.SV.fullCI.1.3.gamess.F10
-rw-rw-r-- 1 maho maho 38216480 Jan 17 17:45 ./N2.SV/1.3/N2.SV.fullCI.1.3.gamess.F12
-rw------- 1 maho maho     1813 Jan 17 17:44 ./N2.SV/1.3/N2.SV.fullCI.1.3.gamess.inp
-rw-rw-r-- 1 maho maho    46209 Jan 17 17:45 ./N2.SV/1.3/N2.SV.fullCI.1.3.gamess.log
ls: No match.
ls: No match.
ls: No match.
Thu Jan 17 17:45:50 JST 2019
0.0u 0.0s 1:17.29 0.1% 0+0k 0+8io 0pf+0w
