----- GAMESS execution script 'rungms' -----
This job is running on host bach.ad64.riken.go.jp
under operating system Darwin at 2019年 1月17日 木曜日 17時45分08秒 JST
Available scratch disk space (Kbyte units) at beginning of the job is
Filesystem   1024-blocks       Used Available Capacity iused      ifree %iused  Mounted on
/dev/disk2s2  1953178672 1144748180 808430492    59%  984104 4293983175    0%   /Volumes/Users
GAMESS temporary binary files will be written to ./
GAMESS supplementary output files will be written to ./
Copying input file LiH.631g/1.3/LiH.631g.fullCI.1.3.gamess.inp to your run's scratch directory...
cp LiH.631g/1.3/LiH.631g.fullCI.1.3.gamess.inp .//LiH.631g/1.3/LiH.631g.fullCI.1.3.gamess.F05
unset echo
/Volumes/Users/maho/bin/gamess//ddikick.x /Volumes/Users/maho/bin/gamess//gamess.00.x LiH.631g/1.3/LiH.631g.fullCI.1.3.gamess -ddi 1 1 bach.ad64.riken.go.jp -scr ./

 Distributed Data Interface kickoff program.
 Initiating 1 compute processes on 1 nodes to run the following command:
 /Volumes/Users/maho/bin/gamess//gamess.00.x LiH.631g/1.3/LiH.631g.fullCI.1.3.gamess 

          ******************************************************
          *         GAMESS VERSION = 18 AUG 2016 (R1)          *
          *             FROM IOWA STATE UNIVERSITY             *
          * M.W.SCHMIDT, K.K.BALDRIDGE, J.A.BOATZ, S.T.ELBERT, *
          *   M.S.GORDON, J.H.JENSEN, S.KOSEKI, N.MATSUNAGA,   *
          *          K.A.NGUYEN, S.J.SU, T.L.WINDUS,           *
          *       TOGETHER WITH M.DUPUIS, J.A.MONTGOMERY       *
          *         J.COMPUT.CHEM.  14, 1347-1363(1993)        *
          **************** 64 BIT APPLE VERSION ****************

  SINCE 1993, STUDENTS AND POSTDOCS WORKING AT IOWA STATE UNIVERSITY
  AND ALSO IN THEIR VARIOUS JOBS AFTER LEAVING ISU HAVE MADE IMPORTANT
  CONTRIBUTIONS TO THE CODE:
     IVANA ADAMOVIC, CHRISTINE AIKENS, YURI ALEXEEV, POOJA ARORA,
     ANDREY ASADCHEV, ROB BELL, PRADIPTA BANDYOPADHYAY, JONATHAN BENTZ,
     BRETT BODE, KURT BRORSEN, CALEB CARLIN, GALINA CHABAN, WEI CHEN,
     CHEOL HO CHOI, PAUL DAY, ALBERT DEFUSCO, NUWAN DESILVA, TIM DUDLEY,
     DMITRI FEDOROV, GRAHAM FLETCHER, MARK FREITAG, KURT GLAESEMANN,
     DAN KEMP, GRANT MERRILL, NORIYUKI MINEZAWA, JONATHAN MULLIN,
     TAKESHI NAGATA, SEAN NEDD, HEATHER NETZLOFF, BOSILJKA NJEGIC, RYAN OLSON,
     MIKE PAK, SPENCER PRUITT, LUKE ROSKOP, JIM SHOEMAKER, LYUDMILA SLIPCHENKO,
     TONY SMITH, SAROM SOK LEANG, JIE SONG, TETSUYA TAKETSUGU, SIMON WEBB,
     PENG XU, SOOHAENG YOO, FEDERICO ZAHARIEV

  ADDITIONAL CODE HAS BEEN PROVIDED BY COLLABORATORS IN OTHER GROUPS:
     IOWA STATE UNIVERSITY:
          JOE IVANIC, AARON WEST, LAIMUTIS BYTAUTAS, KLAUS RUEDENBERG
     UNIVERSITY OF TOKYO: KIMIHIKO HIRAO, TAKAHITO NAKAJIMA,
          TAKAO TSUNEDA, MUNEAKI KAMIYA, SUSUMU YANAGISAWA,
          KIYOSHI YAGI, MAHITO CHIBA, SEIKEN TOKURA, NAOAKI KAWAKAMI
     UNIVERSITY OF AARHUS: FRANK JENSEN
     UNIVERSITY OF IOWA: VISVALDAS KAIRYS, HUI LI
     NATIONAL INST. OF STANDARDS AND TECHNOLOGY: WALT STEVENS, DAVID GARMER
     UNIVERSITY OF PISA: BENEDETTA MENNUCCI, JACOPO TOMASI
     UNIVERSITY OF MEMPHIS: HENRY KURTZ, PRAKASHAN KORAMBATH
     UNIVERSITY OF ALBERTA: TOBY ZENG, MARIUSZ KLOBUKOWSKI
     UNIVERSITY OF NEW ENGLAND: MARK SPACKMAN
     MIE UNIVERSITY: HIROAKI UMEDA
     NAT. INST. OF ADVANCED INDUSTRIAL SCIENCE AND TECHNOLOGY: KAZUO KITAURA
     MICHIGAN STATE UNIVERSITY:
          KAROL KOWALSKI, MARTA WLOCH, JEFFREY GOUR, JESSE LUTZ,
          WEI LI, PIOTR PIECUCH
     UNIVERSITY OF SILESIA: MONIKA MUSIAL, STANISLAW KUCHARSKI
     FACULTES UNIVERSITAIRES NOTRE-DAME DE LA PAIX:
          OLIVIER QUINET, BENOIT CHAMPAGNE
     UNIVERSITY OF CALIFORNIA - SANTA BARBARA: BERNARD KIRTMAN
     INSTITUTE FOR MOLECULAR SCIENCE:
          KAZUYA ISHIMURA, MICHIO KATOUDA, AND SHIGERU NAGASE
     UNIVERSITY OF NOTRE DAME: ANNA POMOGAEVA, DAN CHIPMAN
     KYUSHU UNIVERSITY:
          HARUYUKI NAKANO,
          FENG LONG GU, JACEK KORCHOWIEC, MARCIN MAKOWSKI, AND YURIKO AOKI,
          HIROTOSHI MORI AND EISAKU MIYOSHI
     PENNSYLVANIA STATE UNIVERSITY:
          TZVETELIN IORDANOV, CHET SWALINA, JONATHAN SKONE,
          SHARON HAMMES-SCHIFFER
     WASEDA UNIVERSITY:
          MASATO KOBAYASHI, TOMOKO AKAMA, TSUGUKI TOUMA,
          TAKESHI YOSHIKAWA, YASUHIRO IKABATA, JUNJI SEINO,
          YUYA NAKAJIMA, HIROMI NAKAI
     NANJING UNIVERSITY: SHUHUA LI
     UNIVERSITY OF NEBRASKA:
          PEIFENG SU, DEJUN SI, NANDUN THELLAMUREGE, YALI WANG, HUI LI
     UNIVERSITY OF ZURICH: ROBERTO PEVERATI, KIM BALDRIDGE
     N. COPERNICUS UNIVERSITY AND JACKSON STATE UNIVERSITY:
          MARIA BARYSZ
     UNIVERSITY OF COPENHAGEN: Jimmy Kromann, CASPER STEINMANN
     TOKYO INSTITUTE OF TECHNOLOGY: HIROYA NAKATA
     NAGOYA UNIVERSITY: YOSHIO NISHIMOTO, STEPHAN IRLE
     MOSCOW STATE UNIVERSITY: VLADIMIR MIRONOV

 EXECUTION OF GAMESS BEGUN Thu Jan 17 17:45:08 2019

            ECHO OF THE FIRST FEW INPUT CARDS -
 INPUT CARD> $CONTRL SCFTYP=RHF CITYP=ALDET $END                                            
 INPUT CARD> $GUESS  GUESS=HUCKEL $END                                                      
 INPUT CARD> $BASIS GBASIS=N31 NGAUSS=6 NDFUNC=1 NPFUNC=1 $END                              
 INPUT CARD> $CIDET SZ=0 GROUP=C2V NCORE=0 NACT=20 NELS=4 $END                              
 INPUT CARD> $DATA                                                                          
 INPUT CARD>LiH...HF...6-31G* basis                                                         
 INPUT CARD>Cnv   2                                                                         
 INPUT CARD>                                                                                
 INPUT CARD>Li    3.0    0.0      0.0     0.0                                               
 INPUT CARD>H     1.0    0.0      0.0     1.3                                               
 INPUT CARD> $END                                                                           
    1000000 WORDS OF MEMORY AVAILABLE

     BASIS OPTIONS
     -------------
     GBASIS=N31          IGAUSS=       6      POLAR=POPN31  
     NDFUNC=       1     NFFUNC=       0     DIFFSP=       F
     NPFUNC=       1      DIFFS=       F     BASNAM=        


     RUN TITLE
     ---------
 LiH...HF...6-31G* basis                                                         

 THE POINT GROUP OF THE MOLECULE IS CNV     
 THE ORDER OF THE PRINCIPAL AXIS IS     2

 ATOM      ATOMIC                      COORDINATES (BOHR)
           CHARGE         X                   Y                   Z
 LI          3.0     0.0000000000        0.0000000000        0.0000000000
 H           1.0     0.0000000000        0.0000000000        2.4566437840

          INTERNUCLEAR DISTANCES (ANGS.)
          ------------------------------

                1 LI         2 H     

   1 LI      0.0000000    1.3000000 *
   2 H       1.3000000 *  0.0000000  

  * ... LESS THAN  3.000


     ATOMIC BASIS SET
     ----------------
 THE CONTRACTED PRIMITIVE FUNCTIONS HAVE BEEN UNNORMALIZED
 THE CONTRACTED BASIS FUNCTIONS ARE NOW NORMALIZED TO UNITY

  SHELL TYPE  PRIMITIVE        EXPONENT          CONTRACTION COEFFICIENT(S)

 LI        

      1   S       1           642.4189150    0.002142607810
      1   S       2            96.7985153    0.016208871501
      1   S       3            22.0911212    0.077315572504
      1   S       4             6.2010702    0.245786052013
      1   S       5             1.9351177    0.470189004025
      1   S       6             0.6367358    0.345470845019

      2   L       7             2.3249184   -0.035091745735    0.008941508043
      2   L       8             0.6324304   -0.191232843103    0.141009464046
      2   L       9             0.0790534    1.083987794916    0.945363695309

      3   L      10             0.0359620    1.000000000000    1.000000000000

      4   D      11             0.2000000    1.000000000000

 H         

      5   S      12            18.7311370    0.033494604338
      5   S      13             2.8253944    0.234726953484
      5   S      14             0.6401217    0.813757326146

      6   S      15             0.1612778    1.000000000000

      7   P      16             1.1000000    1.000000000000

 TOTAL NUMBER OF BASIS SET SHELLS             =    7
 NUMBER OF CARTESIAN GAUSSIAN BASIS FUNCTIONS =   20
 NUMBER OF ELECTRONS                          =    4
 CHARGE OF MOLECULE                           =    0
 SPIN MULTIPLICITY                            =    1
 NUMBER OF OCCUPIED ORBITALS (ALPHA)          =    2
 NUMBER OF OCCUPIED ORBITALS (BETA )          =    2
 TOTAL NUMBER OF ATOMS                        =    2
 THE NUCLEAR REPULSION ENERGY IS        1.2211782675

 THIS MOLECULE IS RECOGNIZED AS BEING LINEAR,
 ORBITAL LZ DEGENERACY TOLERANCE ETOLLZ= 1.00E-06

     $CONTRL OPTIONS
     ---------------
 SCFTYP=RHF          RUNTYP=ENERGY       EXETYP=RUN     
 MPLEVL=       0     CITYP =ALDET        CCTYP =NONE         VBTYP =NONE    
 DFTTYP=NONE         TDDFT =NONE    
 MULT  =       1     ICHARG=       0     NZVAR =       0     COORD =UNIQUE  
 PP    =NONE         RELWFN=NONE         LOCAL =NONE         NUMGRD=       F
 ISPHER=      -1     NOSYM =       0     MAXIT =      30     UNITS =ANGS    
 PLTORB=       F     MOLPLT=       F     AIMPAC=       F     FRIEND=        
 NPRINT=       7     IREST =       0     GEOM  =INPUT   
 NORMF =       0     NORMP =       0     ITOL  =      20     ICUT  =       9
 INTTYP=BEST         GRDTYP=BEST         QMTTOL= 1.0E-06

     $SYSTEM OPTIONS
     ---------------
  REPLICATED MEMORY=     1000000 WORDS (ON EVERY NODE).
 DISTRIBUTED MEMDDI=           0 MILLION WORDS IN AGGREGATE,
 MEMDDI DISTRIBUTED OVER   1 PROCESSORS IS           0 WORDS/PROCESSOR.
 TOTAL MEMORY REQUESTED ON EACH PROCESSOR=     1000000 WORDS.
 TIMLIM=      525600.00 MINUTES, OR     365.0 DAYS.
 PARALL= F  BALTYP=  DLB     KDIAG=    0  COREFL= F
 MXSEQ2=     300 MXSEQ3=     150  mem10=         0

          ----------------
          PROPERTIES INPUT
          ----------------

     MOMENTS            FIELD           POTENTIAL          DENSITY
 IEMOM =       1   IEFLD =       0   IEPOT =       0   IEDEN =       0
 WHERE =COMASS     WHERE =NUCLEI     WHERE =NUCLEI     WHERE =NUCLEI  
 OUTPUT=BOTH       OUTPUT=BOTH       OUTPUT=BOTH       OUTPUT=BOTH    
 IEMINT=       0   IEFINT=       0                     IEDINT=       0
                                                       MORB  =       0
          EXTRAPOLATION IN EFFECT
          SOSCF IN EFFECT
 ORBITAL PRINTING OPTION: NPREO=     1    20     2     1

     -------------------------------
     INTEGRAL TRANSFORMATION OPTIONS
     -------------------------------
     NWORD  =            0
     CUTOFF = 1.0E-09     MPTRAN =       0
     DIRTRF =       F     AOINTS =DUP     

          ----------------------
          INTEGRAL INPUT OPTIONS
          ----------------------
 NOPK  =       1 NORDER=       0 SCHWRZ=       F

     ------------------------------------------
     THE POINT GROUP IS CNV, NAXIS= 2, ORDER= 4
     ------------------------------------------

     DIMENSIONS OF THE SYMMETRY SUBSPACES ARE
 A1  =   11     A2  =    1     B1  =    4     B2  =    4

 ..... DONE SETTING UP THE RUN .....
 STEP CPU TIME =     0.00 TOTAL CPU TIME =        0.0 (    0.0 MIN)
 TOTAL WALL CLOCK TIME=        0.0 SECONDS, CPU UTILIZATION IS   0.00%

          ********************
          1 ELECTRON INTEGRALS
          ********************
 ...... END OF ONE-ELECTRON INTEGRALS ......
 STEP CPU TIME =     0.00 TOTAL CPU TIME =        0.0 (    0.0 MIN)
 TOTAL WALL CLOCK TIME=        0.0 SECONDS, CPU UTILIZATION IS   0.00%

          -------------
          GUESS OPTIONS
          -------------
          GUESS =HUCKEL            NORB  =       0          NORDER=       0
          MIX   =       F          PRTMO =       F          PUNMO =       F
          TOLZ  = 1.0E-08          TOLE  = 1.0E-05
          SYMDEN=       F          PURIFY=       F

 INITIAL GUESS ORBITALS GENERATED BY HUCKEL   ROUTINE.
 HUCKEL GUESS REQUIRES      4469 WORDS.

 SYMMETRIES FOR INITIAL GUESS ORBITALS FOLLOW.   BOTH SET(S).
     2 ORBITALS ARE OCCUPIED (    1 CORE ORBITALS).
     2=A1       3=A1       4=A1       5=A1       6=A1       7=A1       8=A1  
     9=A1      10=A1      11=A1      12=A2  
 ...... END OF INITIAL ORBITAL SELECTION ......
 STEP CPU TIME =     0.00 TOTAL CPU TIME =        0.0 (    0.0 MIN)
 TOTAL WALL CLOCK TIME=        0.0 SECONDS, CPU UTILIZATION IS   0.00%

                    ----------------------
                    AO INTEGRAL TECHNOLOGY
                    ----------------------
     S,P,L SHELL ROTATED AXIS INTEGRALS, REPROGRAMMED BY
        KAZUYA ISHIMURA (IMS) AND JOSE SIERRA (SYNSTAR).
     S,P,D,L SHELL ROTATED AXIS INTEGRALS PROGRAMMED BY
        KAZUYA ISHIMURA (INSTITUTE FOR MOLECULAR SCIENCE).
     S,P,D,F,G SHELL TO TOTAL QUARTET ANGULAR MOMENTUM SUM 5,
        ERIC PROGRAM BY GRAHAM FLETCHER (ELORET AND NASA ADVANCED
        SUPERCOMPUTING DIVISION, AMES RESEARCH CENTER).
     S,P,D,F,G,L SHELL GENERAL RYS QUADRATURE PROGRAMMED BY
        MICHEL DUPUIS (PACIFIC NORTHWEST NATIONAL LABORATORY).

          --------------------
          2 ELECTRON INTEGRALS
          --------------------

 THE -PK- OPTION IS OFF, THE INTEGRALS ARE NOT IN SUPERMATRIX FORM.
 STORING   15000 INTEGRALS/RECORD ON DISK, USING 12 BYTES/INTEGRAL.
 TWO ELECTRON INTEGRAL EVALUATION REQUIRES   90424 WORDS OF MEMORY.
 II,JST,KST,LST =  1  1  1  1 NREC =         1 INTLOC =    1
 II,JST,KST,LST =  2  1  1  1 NREC =         1 INTLOC =    2
 II,JST,KST,LST =  3  1  1  1 NREC =         1 INTLOC =   34
 II,JST,KST,LST =  4  1  1  1 NREC =         1 INTLOC =  214
 II,JST,KST,LST =  5  1  1  1 NREC =         1 INTLOC = 1189
 II,JST,KST,LST =  6  1  1  1 NREC =         1 INTLOC = 1867
 II,JST,KST,LST =  7  1  1  1 NREC =         1 INTLOC = 2713
 TOTAL NUMBER OF NONZERO TWO-ELECTRON INTEGRALS =                5596
          1 INTEGRAL RECORDS WERE STORED ON DISK FILE  8.
  ...... END OF TWO-ELECTRON INTEGRALS .....
 STEP CPU TIME =     0.03 TOTAL CPU TIME =        0.0 (    0.0 MIN)
 TOTAL WALL CLOCK TIME=        0.0 SECONDS, CPU UTILIZATION IS 100.00%

          --------------------------
                 RHF SCF CALCULATION
          --------------------------

     NUCLEAR ENERGY =         1.2211782675
     MAXIT =   30     NPUNCH=    2
     EXTRAP=T  DAMP=F  SHIFT=F  RSTRCT=F  DIIS=F  DEM=F  SOSCF=T
     DENSITY MATRIX CONV=  1.00E-06
     SOSCF WILL OPTIMIZE      36 ORBITAL ROTATIONS, SOGTOL=   0.250
     MEMORY REQUIRED FOR RHF ITERS=     33224 WORDS.

 ITER EX DEM     TOTAL ENERGY        E CHANGE  DENSITY CHANGE     ORB. GRAD
   1  0  0       -7.8880144305    -7.8880144305   0.239217545   0.000000000
          ---------------START SECOND ORDER SCF---------------
   2  1  0       -7.9554381862    -0.0674237558   0.065626848   0.019611672
   3  2  0       -7.9608054675    -0.0053672813   0.052813991   0.008068897
   4  3  0       -7.9619440007    -0.0011385332   0.004921752   0.001437265
   5  4  0       -7.9619584611    -0.0000144603   0.001275806   0.000251488
   6  5  0       -7.9619587467    -0.0000002857   0.000159889   0.000017483
   7  6  0       -7.9619587512    -0.0000000044   0.000023917   0.000003567
   8  7  0       -7.9619587514    -0.0000000002   0.000001811   0.000000432
   9  8  0       -7.9619587514    -0.0000000000   0.000000282   0.000000063

          -----------------
          DENSITY CONVERGED
          -----------------
     TIME TO FORM FOCK OPERATORS=       0.0 SECONDS (       0.0 SEC/ITER)
     TIME TO SOLVE SCF EQUATIONS=       0.0 SECONDS (       0.0 SEC/ITER)

 FINAL RHF ENERGY IS       -7.9619587514 AFTER   9 ITERATIONS

 LZ VALUE ANALYSIS FOR THE MOS
 ----------------------------------------
 MO     1 (    1) HAS LZ(WEIGHT)= 0.00(100.0%) 
 MO     2 (    2) HAS LZ(WEIGHT)= 0.00(100.0%) 
 MO     3 (    3) HAS LZ(WEIGHT)= 0.00(100.0%) 
 MO     4 (    4) HAS LZ(WEIGHT)=-1.00( 50.0%)  1.00( 50.0%) 
 MO     5 (    4) HAS LZ(WEIGHT)=-1.00( 50.0%)  1.00( 50.0%) 
 MO     6 (    5) HAS LZ(WEIGHT)= 0.00(100.0%) 
 MO     7 (    6) HAS LZ(WEIGHT)= 0.00(100.0%) 
 MO     8 (    7) HAS LZ(WEIGHT)=-1.00( 50.0%)  1.00( 50.0%) 
 MO     9 (    7) HAS LZ(WEIGHT)=-1.00( 50.0%)  1.00( 50.0%) 
 MO    10 (    8) HAS LZ(WEIGHT)= 0.00(100.0%) 
 MO    11 (    9) HAS LZ(WEIGHT)=-1.00( 50.0%)  1.00( 50.0%) 
 MO    12 (    9) HAS LZ(WEIGHT)=-1.00( 50.0%)  1.00( 50.0%) 
 MO    13 (   10) HAS LZ(WEIGHT)=-2.00( 50.0%)  2.00( 50.0%) 
 MO    14 (   10) HAS LZ(WEIGHT)=-2.00( 50.0%)  2.00( 50.0%) 
 MO    15 (   11) HAS LZ(WEIGHT)= 0.00(100.0%) 
 MO    16 (   12) HAS LZ(WEIGHT)= 0.00(100.0%) 
 MO    17 (   13) HAS LZ(WEIGHT)= 0.00(100.0%) 
 MO    18 (   14) HAS LZ(WEIGHT)= 0.00(100.0%) 
 MO    19 (   15) HAS LZ(WEIGHT)=-1.00( 50.0%)  1.00( 50.0%) 
 MO    20 (   15) HAS LZ(WEIGHT)=-1.00( 50.0%)  1.00( 50.0%) 

          ------------
          EIGENVECTORS
          ------------

                      1          2          3          4          5
                   -2.4328    -0.3150     0.0140     0.0631     0.0631
                     A1         A1         A1         B1         B2  
    1  LI 1  S    0.996695  -0.164796  -0.126377  -0.000000  -0.000000
    2  LI 1  S   -0.010149   0.243283  -0.405962  -0.000000  -0.000000
    3  LI 1  X    0.000000  -0.000000  -0.000000  -0.004653  -0.000000
    4  LI 1  Y    0.000000  -0.000000  -0.000000  -0.000000  -0.004653
    5  LI 1  Z   -0.014706   0.317686  -0.125903  -0.000000  -0.000000
    6  LI 1  S   -0.000236   0.123693   1.035617  -0.000000  -0.000000
    7  LI 1  X    0.000000  -0.000000  -0.000000   1.002997  -0.000000
    8  LI 1  Y    0.000000  -0.000000  -0.000000  -0.000000   1.002997
    9  LI 1  Z    0.006864  -0.056599  -0.503589  -0.000000  -0.000000
   10  LI 1 XX    0.008067  -0.010810   0.059815  -0.000000  -0.000000
   11  LI 1 YY    0.008067  -0.010810   0.059815  -0.000000  -0.000000
   12  LI 1 ZZ    0.004134   0.044970   0.109413  -0.000000  -0.000000
   13  LI 1 XY    0.000000  -0.000000  -0.000000  -0.000000  -0.000000
   14  LI 1 XZ    0.000000  -0.000000  -0.000000  -0.025957  -0.000000
   15  LI 1 YZ    0.000000  -0.000000  -0.000000  -0.000000  -0.025957
   16  H  2  S    0.006461   0.317522  -0.062262  -0.000000  -0.000000
   17  H  2  S    0.010391   0.346333  -0.145486  -0.000000  -0.000000
   18  H  2  X    0.000000  -0.000000  -0.000000   0.007252  -0.000000
   19  H  2  Y    0.000000  -0.000000  -0.000000  -0.000000   0.007252
   20  H  2  Z   -0.001497  -0.015030   0.004420  -0.000000  -0.000000

                      6          7          8          9         10
                    0.1378     0.1975     0.2259     0.2259     0.4160
                     A1         A1         B1         B2         A1  
    1  LI 1  S   -0.026005   0.021589   0.000000   0.000000   0.156577
    2  LI 1  S   -0.573301   2.581638   0.000000   0.000000   2.226279
    3  LI 1  X   -0.000000   0.000000   1.669128   0.000000   0.000000
    4  LI 1  Y   -0.000000   0.000000   0.000000   1.669128   0.000000
    5  LI 1  Z   -0.601323  -1.035224   0.000000   0.000000   1.470275
    6  LI 1  S    0.996685  -2.044153   0.000000   0.000000  -0.903004
    7  LI 1  X   -0.000000   0.000000  -1.338989   0.000000   0.000000
    8  LI 1  Y   -0.000000   0.000000   0.000000  -1.338989   0.000000
    9  LI 1  Z    1.302120   0.665942   0.000000   0.000000  -0.590353
   10  LI 1 XX    0.086252  -0.257780   0.000000   0.000000   0.012608
   11  LI 1 YY    0.086252  -0.257780   0.000000   0.000000   0.012608
   12  LI 1 ZZ    0.104715  -0.230383   0.000000   0.000000  -0.597371
   13  LI 1 XY   -0.000000   0.000000   0.000000   0.000000   0.000000
   14  LI 1 XZ   -0.000000   0.000000  -0.059057   0.000000   0.000000
   15  LI 1 YZ   -0.000000   0.000000   0.000000  -0.059057   0.000000
   16  H  2  S   -0.096777  -0.030342   0.000000   0.000000  -0.085355
   17  H  2  S   -0.469572   0.245499   0.000000   0.000000  -1.196505
   18  H  2  X   -0.000000   0.000000   0.012785   0.000000   0.000000
   19  H  2  Y   -0.000000   0.000000   0.000000   0.012785   0.000000
   20  H  2  Z    0.004393   0.005540   0.000000   0.000000  -0.003953

                     11         12         13         14         15
                    0.5726     0.5726     0.5881     0.5881     0.9200
                     B1         B2         A2         A1         A1  
    1  LI 1  S    0.000000   0.000000   0.000000   0.000000   0.463415
    2  LI 1  S    0.000000   0.000000   0.000000   0.000000   3.980644
    3  LI 1  X    0.092205   0.000000   0.000000   0.000000  -0.000000
    4  LI 1  Y    0.000000   0.092205   0.000000   0.000000  -0.000000
    5  LI 1  Z    0.000000   0.000000   0.000000   0.000000   2.759867
    6  LI 1  S    0.000000   0.000000   0.000000   0.000000  -1.009618
    7  LI 1  X   -0.050164   0.000000   0.000000   0.000000  -0.000000
    8  LI 1  Y    0.000000  -0.050164   0.000000   0.000000  -0.000000
    9  LI 1  Z    0.000000   0.000000   0.000000   0.000000  -0.689526
   10  LI 1 XX    0.000000   0.000000   0.000000  -0.866025  -1.153847
   11  LI 1 YY    0.000000   0.000000   0.000000   0.866025  -1.153847
   12  LI 1 ZZ    0.000000   0.000000   0.000000   0.000000   1.145350
   13  LI 1 XY    0.000000   0.000000   1.000000   0.000000  -0.000000
   14  LI 1 XZ    0.997783   0.000000   0.000000   0.000000  -0.000000
   15  LI 1 YZ    0.000000   0.997783   0.000000   0.000000  -0.000000
   16  H  2  S    0.000000   0.000000   0.000000   0.000000  -0.000468
   17  H  2  S    0.000000   0.000000   0.000000   0.000000  -3.532410
   18  H  2  X    0.001366   0.000000   0.000000   0.000000  -0.000000
   19  H  2  Y    0.000000   0.001366   0.000000   0.000000  -0.000000
   20  H  2  Z    0.000000   0.000000   0.000000   0.000000   0.028403

                     16         17         18         19         20
                    1.1967     1.3893     2.5983     2.6470     2.6470
                     A1         A1         A1         B1         B2  
    1  LI 1  S    0.042414   0.136868   0.257542  -0.000000  -0.000000
    2  LI 1  S    8.657857   3.068070   2.040673  -0.000000  -0.000000
    3  LI 1  X   -0.000000  -0.000000   0.000000  -0.232171  -0.000000
    4  LI 1  Y   -0.000000  -0.000000   0.000000  -0.000000  -0.232171
    5  LI 1  Z   -0.193191  -0.216096   1.095239  -0.000000  -0.000000
    6  LI 1  S   -2.757072  -0.708692  -0.609084  -0.000000  -0.000000
    7  LI 1  X   -0.000000  -0.000000   0.000000   0.117149  -0.000000
    8  LI 1  Y   -0.000000  -0.000000   0.000000  -0.000000   0.117149
    9  LI 1  Z   -0.028397   0.345602  -0.367660  -0.000000  -0.000000
   10  LI 1 XX   -2.968787  -0.793855  -0.471713  -0.000000  -0.000000
   11  LI 1 YY   -2.968787  -0.793855  -0.471713  -0.000000  -0.000000
   12  LI 1 ZZ   -2.992193  -1.415125   0.045045  -0.000000  -0.000000
   13  LI 1 XY   -0.000000  -0.000000   0.000000  -0.000000  -0.000000
   14  LI 1 XZ   -0.000000  -0.000000   0.000000  -0.313565  -0.000000
   15  LI 1 YZ   -0.000000  -0.000000   0.000000  -0.000000  -0.313565
   16  H  2  S   -0.322295   1.406568   0.150542  -0.000000  -0.000000
   17  H  2  S    0.629883  -1.193480  -1.331510  -0.000000  -0.000000
   18  H  2  X   -0.000000  -0.000000   0.000000   1.057221  -0.000000
   19  H  2  Y   -0.000000  -0.000000   0.000000  -0.000000   1.057221
   20  H  2  Z    0.074035  -0.068125   1.069130  -0.000000  -0.000000
 ...... END OF RHF CALCULATION ......
 STEP CPU TIME =     0.00 TOTAL CPU TIME =        0.0 (    0.0 MIN)
 TOTAL WALL CLOCK TIME=        0.0 SECONDS, CPU UTILIZATION IS  75.00%

     ----------------------------------------------------------------
     PROPERTY VALUES FOR THE RHF   SELF-CONSISTENT FIELD WAVEFUNCTION
     ----------------------------------------------------------------

          -----------------
          ENERGY COMPONENTS
          -----------------

         WAVEFUNCTION NORMALIZATION =       1.0000000000

                ONE ELECTRON ENERGY =     -12.8707378338
                TWO ELECTRON ENERGY =       3.6876008149
           NUCLEAR REPULSION ENERGY =       1.2211782675
                                      ------------------
                       TOTAL ENERGY =      -7.9619587514

 ELECTRON-ELECTRON POTENTIAL ENERGY =       3.6876008149
  NUCLEUS-ELECTRON POTENTIAL ENERGY =     -21.0327576927
   NUCLEUS-NUCLEUS POTENTIAL ENERGY =       1.2211782675
                                      ------------------
             TOTAL POTENTIAL ENERGY =     -16.1239786103
               TOTAL KINETIC ENERGY =       8.1620198589
                 VIRIAL RATIO (V/T) =       1.9754887747

  ...... PI ENERGY ANALYSIS ......

 ENERGY ANALYSIS:
            FOCK ENERGY=     -5.4955362122
          BARE H ENERGY=    -12.8707378338
     ELECTRONIC ENERGY =     -9.1831370230
         KINETIC ENERGY=      8.1620198589
          N-N REPULSION=      1.2211782675
           TOTAL ENERGY=     -7.9619587555
        SIGMA PART(1+2)=     -9.1831370230
               (K,V1,2)=      8.1620198589    -21.0327576927      3.6876008108
           PI PART(1+2)=      0.0000000000
               (K,V1,2)=      0.0000000000      0.0000000000      0.0000000000
  SIGMA SKELETON, ERROR=     -7.9619587555      0.0000000000
             MIXED PART= 0.00000E+00 0.00000E+00 0.00000E+00 0.00000E+00
 ...... END OF PI ENERGY ANALYSIS ......

          ---------------------------------------
          MULLIKEN AND LOWDIN POPULATION ANALYSES
          ---------------------------------------

               ----- POPULATIONS IN EACH AO -----
                             MULLIKEN      LOWDIN
              1  LI 1  S      1.99674     1.97495
              2  LI 1  S      0.32086     0.18577
              3  LI 1  X      0.00000     0.00000
              4  LI 1  Y      0.00000     0.00000
              5  LI 1  Z      0.38563     0.31056
              6  LI 1  S      0.14694     0.16680
              7  LI 1  X      0.00000     0.00000
              8  LI 1  Y      0.00000     0.00000
              9  LI 1  Z     -0.04634     0.04970
             10  LI 1 XX     -0.00659     0.04325
             11  LI 1 YY     -0.00659     0.04325
             12  LI 1 ZZ      0.06268     0.19199
             13  LI 1 XY      0.00000     0.00000
             14  LI 1 XZ      0.00000     0.00000
             15  LI 1 YZ      0.00000     0.00000
             16  H  2  S      0.48718     0.44959
             17  H  2  S      0.65830     0.58017
             18  H  2  X      0.00000     0.00000
             19  H  2  Y      0.00000     0.00000
             20  H  2  Z      0.00120     0.00398

          ----- MULLIKEN ATOMIC OVERLAP POPULATIONS -----
          (OFF-DIAGONAL ELEMENTS NEED TO BE MULTIPLIED BY 2)

             1           2

    1    2.4386816
    2    0.4146435   0.7320314

          TOTAL MULLIKEN AND LOWDIN ATOMIC POPULATIONS
       ATOM         MULL.POP.    CHARGE          LOW.POP.     CHARGE
    1 LI            2.853325    0.146675         2.966263    0.033737
    2 H             1.146675   -0.146675         1.033737   -0.033737

          ---------------------
          ELECTROSTATIC MOMENTS
          ---------------------

 POINT   1           X           Y           Z (BOHR)    CHARGE
                 0.000000    0.000000    0.308564        0.00 (A.U.)
         DX          DY          DZ         /D/  (DEBYE)
     0.000000    0.000000   -5.365658    5.365658
 ...... END OF PROPERTY EVALUATION ......
 STEP CPU TIME =     0.01 TOTAL CPU TIME =        0.0 (    0.0 MIN)
 TOTAL WALL CLOCK TIME=        0.0 SECONDS, CPU UTILIZATION IS 100.00%

 DETERMINANT CI OPTIONS   NRNFG   NPFLG
 INTEGRAL TRANSFORMATION    1       0
 DIAGONALIZE HAMILTONIAN    1       0
 FORM 1E- DENSITY MATRIX    1       0
 FORM 2E- DENSITY MATRIX    0       0

     --------------------------------------------------
          AMES LABORATORY DETERMINANTAL FULL CI
     PROGRAM WRITTEN BY JOE IVANIC AND KLAUS RUEDENBERG
     --------------------------------------------------

 THE POINT GROUP                  =   C2V     
 THE STATE SYMMETRY               =   A1      
 NUMBER OF CORE ORBITALS          =    0
 NUMBER OF ACTIVE ORBITALS        =   20
 NUMBER OF ALPHA ELECTRONS        =    2 (   2 ACTIVE)
 NUMBER OF BETA ELECTRONS         =    2 (   2 ACTIVE)
 NUMBER OF OCCUPIED ORBITALS      =   20
 NUMBER OF CI STATES REQUESTED    =    1
 NUMBER OF CI STARTING VECTORS    =    1
 MAX. NO. OF CI EXPANSION VECTORS =   10
 SIZE OF INITIAL CI GUESS MATRIX  =  300
 MAX. NO. OF CI ITERS/STATE       =  100
 CI DIAGONALIZATION CRITERION     = 1.00E-06
 CI PROPERTIES WILL BE FOUND FOR ROOT NUMBER   1
 1E- DENSITY MATRIX OPTIONS ARE 1

 CORRELATION ENERGY ANALYSIS      =    F

 SYMMETRIES FOR THE   0 CORE,  20 ACTIVE ARE

   ACTIVE= A1    A1    A1    B1    B2    A1    A1    B1    B2    A1  
           B1    B2    A2    A1    A1    A1    A1    A1    B1    B2  

     --------------------------------------------
     PARTIAL TWO ELECTRON INTEGRAL TRANSFORMATION
     --------------------------------------------

 NUMBER OF CORE MOLECULAR ORBITALS     =    0
 NUMBER OF OCCUPIED MOLECULAR ORBITALS =   20
 TOTAL NUMBER OF MOLECULAR ORBITALS    =   20
 TOTAL NUMBER OF ATOMIC ORBITALS       =   20
 THRESHOLD FOR KEEPING TRANSFORMED 2E- INTEGRALS = 1.000E-09
 AO INTEGRALS WILL BE READ IN FROM DISK...

 PLAN A: REQUIREMENTS FOR FULLY IN-MEMORY TRANSFORMATION:
 # OF WORDS AVAILABLE =              1000000
 # OF WORDS NEEDED    =               146042

 CHOOSING IN MEMORY PARTIAL TRANSFORMATION...
 TOTAL NUMBER OF TRANSFORMED 2E- INTEGRALS KEPT =         5962
 ... END OF INTEGRAL TRANSFORMATION ...
 STEP CPU TIME =     0.00 TOTAL CPU TIME =        0.0 (    0.0 MIN)
 TOTAL WALL CLOCK TIME=        0.1 SECONDS, CPU UTILIZATION IS  80.00%

     --------------------------------------------------
          AMES LABORATORY DETERMINANTAL FULL CI
     PROGRAM WRITTEN BY JOE IVANIC AND KLAUS RUEDENBERG
     --------------------------------------------------

 THE NUMBER OF DETERMINANTS HAVING SPACE SYMMETRY A1 
 IN POINT GROUP C2V  WITH SZ=  0.0 IS           9826
 THE DETERMINANT FULL CI REQUIRES          451749 WORDS
 INITIAL CI VECTOR GUESS TIME  :          0.0
 INITIAL FULL CI ITERATION TIME:          0.0

 ITERATION      ENERGY           GRADIENT
     0       -7.9867651921     0.14754512
     1       -7.9909749305     0.01056808
     2       -7.9910524852     0.00429631
     3       -7.9910621069     0.00125304
     4       -7.9910637618     0.00054079
     5       -7.9910639839     0.00015676
     6       -7.9910639996     0.00003846
     7       -7.9910640006     0.00001027
     8       -7.9910640007     0.00000234
     9       -7.9910640007     0.00000039

 CONVERGED STATE    1 ENERGY=       -7.9910640007 IN    9 ITERS

 ALL STATES CONVERGED.

 CI EIGENVECTORS WILL BE LABELED IN GROUP=C2V     
 PRINTING CI COEFFICIENTS LARGER THAN 5.000E-02

 STATE   1  ENERGY=        -7.9910640007  S=  0.00  SZ=  0.00  SPACE SYM=A1  

        ALPHA         |        BETA          | CI COEFFICIENT
----------------------|----------------------|---------------
 11000000000000000000 | 11000000000000000000 |   0.9886569239
 ..... DONE WITH DETERMINANT CI COMPUTATION .....
 STEP CPU TIME =     0.25 TOTAL CPU TIME =        0.3 (    0.0 MIN)
 TOTAL WALL CLOCK TIME=        0.4 SECONDS, CPU UTILIZATION IS  80.56%

     ---------------------------
     ONE PARTICLE DENSITY MATRIX
     ---------------------------

 DENSITY MATRIX WILL BE SAVED FOR   1-TH STATE WITH S= 0.00

 CI EIGENSTATE   1 TOTAL ENERGY =       -7.9910640007

          NATURAL ORBITALS IN ATOMIC ORBITAL BASIS
          ----------------------------------------

                      1          2          3          4          5
                    1.9997     1.9573     0.0264     0.0068     0.0068
                     A1         A1         A1         B2         B1  
    1  LI 1  S    1.000634  -0.138275   0.046178  -0.000000  -0.000000
    2  LI 1  S   -0.013842   0.249726  -0.604115  -0.000000  -0.000000
    3  LI 1  X   -0.000000   0.000000  -0.000000  -0.000000   0.840130
    4  LI 1  Y   -0.000000   0.000000  -0.000000   0.840130  -0.000000
    5  LI 1  Z   -0.024055   0.313214  -0.390091  -0.000000  -0.000000
    6  LI 1  S   -0.005109   0.140554  -0.390250  -0.000000  -0.000000
    7  LI 1  X   -0.000000   0.000000  -0.000000  -0.000000  -0.251931
    8  LI 1  Y   -0.000000   0.000000  -0.000000  -0.251931  -0.000000
    9  LI 1  Z    0.008635  -0.054032  -0.089684  -0.000000  -0.000000
   10  LI 1 XX    0.007607  -0.007041   0.001657  -0.000000  -0.000000
   11  LI 1 YY    0.007607  -0.007041   0.001657  -0.000000  -0.000000
   12  LI 1 ZZ    0.001623   0.044221   0.066888  -0.000000  -0.000000
   13  LI 1 XY   -0.000000   0.000000  -0.000000  -0.000000  -0.000000
   14  LI 1 XZ   -0.000000   0.000000  -0.000000  -0.000000   0.552507
   15  LI 1 YZ   -0.000000   0.000000  -0.000000   0.552507  -0.000000
   16  H  2  S   -0.002573   0.329450   0.812601  -0.000000  -0.000000
   17  H  2  S    0.002523   0.320366   0.261227  -0.000000  -0.000000
   18  H  2  X   -0.000000   0.000000  -0.000000  -0.000000   0.323101
   19  H  2  Y   -0.000000   0.000000  -0.000000   0.323101  -0.000000
   20  H  2  Z   -0.001296  -0.015048  -0.024818  -0.000000  -0.000000

                      6          7          8          9         10
                    0.0019     0.0004     0.0002     0.0002     0.0002
                     A1         A1         B2         B1         A1  
    1  LI 1  S    0.156416  -0.074783  -0.000000  -0.000000  -0.316710
    2  LI 1  S    2.325920  -0.247026  -0.000000  -0.000000   3.033199
    3  LI 1  X   -0.000000   0.000000  -0.000000  -0.714324  -0.000000
    4  LI 1  Y   -0.000000   0.000000  -0.714324  -0.000000  -0.000000
    5  LI 1  Z    1.181887   0.373021  -0.000000  -0.000000  -2.716478
    6  LI 1  S   -0.890495  -0.692788  -0.000000  -0.000000  -1.520604
    7  LI 1  X   -0.000000   0.000000  -0.000000   0.215032  -0.000000
    8  LI 1  Y   -0.000000   0.000000   0.215032  -0.000000  -0.000000
    9  LI 1  Z   -0.597627  -0.560584  -0.000000  -0.000000   0.866931
   10  LI 1 XX   -0.276879  -0.112408  -0.000000  -0.000000  -1.033172
   11  LI 1 YY   -0.276879  -0.112408  -0.000000  -0.000000  -1.033172
   12  LI 1 ZZ   -0.091080   0.374276  -0.000000  -0.000000  -2.218655
   13  LI 1 XY   -0.000000   0.000000  -0.000000  -0.000000  -0.000000
   14  LI 1 XZ   -0.000000   0.000000  -0.000000  -0.239584  -0.000000
   15  LI 1 YZ   -0.000000   0.000000  -0.239584  -0.000000  -0.000000
   16  H  2  S    0.405190  -1.084130  -0.000000  -0.000000  -0.059272
   17  H  2  S   -1.644909   1.320536  -0.000000  -0.000000   2.674607
   18  H  2  X   -0.000000   0.000000  -0.000000   0.951125  -0.000000
   19  H  2  Y   -0.000000   0.000000   0.951125  -0.000000  -0.000000
   20  H  2  Z   -0.636537  -0.295218  -0.000000  -0.000000  -0.345478

                     11         12         13         14         15
                    0.0001     0.0000     0.0000     0.0000     0.0000
                     A1         B1         B2         A1         A2  
    1  LI 1  S    0.153111  -0.000000  -0.000000  -0.000000   0.000000
    2  LI 1  S    2.426039  -0.000000  -0.000000  -0.000000   0.000000
    3  LI 1  X    0.000000  -1.259699  -0.000000  -0.000000   0.000000
    4  LI 1  Y    0.000000  -0.000000  -1.259699  -0.000000   0.000000
    5  LI 1  Z    0.829825  -0.000000  -0.000000  -0.000000   0.000000
    6  LI 1  S   -1.684758  -0.000000  -0.000000  -0.000000   0.000000
    7  LI 1  X    0.000000   1.355423  -0.000000  -0.000000   0.000000
    8  LI 1  Y    0.000000  -0.000000   1.355423  -0.000000   0.000000
    9  LI 1  Z   -0.911141  -0.000000  -0.000000  -0.000000   0.000000
   10  LI 1 XX   -0.147103  -0.000000  -0.000000   0.866025   0.000000
   11  LI 1 YY   -0.147103  -0.000000  -0.000000  -0.866025   0.000000
   12  LI 1 ZZ   -0.190487  -0.000000  -0.000000  -0.000000   0.000000
   13  LI 1 XY    0.000000  -0.000000  -0.000000  -0.000000   1.000000
   14  LI 1 XZ    0.000000   0.561432  -0.000000  -0.000000   0.000000
   15  LI 1 YZ    0.000000  -0.000000   0.561432  -0.000000   0.000000
   16  H  2  S   -0.069725  -0.000000  -0.000000  -0.000000   0.000000
   17  H  2  S   -0.453171  -0.000000  -0.000000  -0.000000   0.000000
   18  H  2  X    0.000000  -0.191523  -0.000000  -0.000000   0.000000
   19  H  2  Y    0.000000  -0.000000  -0.191523  -0.000000   0.000000
   20  H  2  Z    0.629061  -0.000000  -0.000000  -0.000000   0.000000

                     16         17         18         19         20
                    0.0000     0.0000     0.0000     0.0000     0.0000
                     A1         B1         B2         A1         A1  
    1  LI 1  S    0.178042   0.000000   0.000000   0.384931   0.087205
    2  LI 1  S    7.319536   0.000000   0.000000   6.320818   1.429198
    3  LI 1  X    0.000000  -0.213300   0.000000   0.000000   0.000000
    4  LI 1  Y    0.000000   0.000000  -0.213300   0.000000   0.000000
    5  LI 1  Z    1.082583   0.000000   0.000000   1.222105  -0.303597
    6  LI 1  S   -1.811373   0.000000   0.000000  -2.229783  -1.311678
    7  LI 1  X    0.000000   0.931803   0.000000   0.000000   0.000000
    8  LI 1  Y    0.000000   0.000000   0.931803   0.000000   0.000000
    9  LI 1  Z   -0.663002   0.000000   0.000000   0.255026   0.840491
   10  LI 1 XX   -2.511517   0.000000   0.000000  -1.894146   0.039887
   11  LI 1 YY   -2.511517   0.000000   0.000000  -1.894146   0.039887
   12  LI 1 ZZ   -2.604054   0.000000   0.000000   0.040512  -0.899051
   13  LI 1 XY    0.000000   0.000000   0.000000   0.000000   0.000000
   14  LI 1 XZ    0.000000  -0.648216   0.000000   0.000000   0.000000
   15  LI 1 YZ    0.000000   0.000000  -0.648216   0.000000   0.000000
   16  H  2  S    0.191575   0.000000   0.000000  -0.080060   0.259644
   17  H  2  S   -0.628243   0.000000   0.000000  -2.355191   0.068378
   18  H  2  X    0.000000   0.268738   0.000000   0.000000   0.000000
   19  H  2  Y    0.000000   0.000000   0.268738   0.000000   0.000000
   20  H  2  Z    0.252383   0.000000   0.000000   0.286694  -0.011897
 ..... DONE WITH ONE PARTICLE DENSITY MATRIX .....
 STEP CPU TIME =     0.00 TOTAL CPU TIME =        0.3 (    0.0 MIN)
 TOTAL WALL CLOCK TIME=        0.4 SECONDS, CPU UTILIZATION IS  78.38%

     --------------------------------------------------------
     ALDET CI PROPERTIES...FOR THE WAVEFUNCTION OF STATE    1
               USING THE EXPECTATION VALUE DENSITY
     --------------------------------------------------------

          -----------------
          ENERGY COMPONENTS
          -----------------

         WAVEFUNCTION NORMALIZATION =       1.0000000000

                ONE ELECTRON ENERGY =     -12.8376902659
                TWO ELECTRON ENERGY =       3.6254479978
           NUCLEAR REPULSION ENERGY =       1.2211782675
                                      ------------------
                       TOTAL ENERGY =      -7.9910640007

 ELECTRON-ELECTRON POTENTIAL ENERGY =       3.6254479978
  NUCLEUS-ELECTRON POTENTIAL ENERGY =     -21.0279265605
   NUCLEUS-NUCLEUS POTENTIAL ENERGY =       1.2211782675
                                      ------------------
             TOTAL POTENTIAL ENERGY =     -16.1813002953
               TOTAL KINETIC ENERGY =       8.1902362946
                 VIRIAL RATIO (V/T) =       1.9756817402

          ---------------------------------------
          MULLIKEN AND LOWDIN POPULATION ANALYSES
          ---------------------------------------

               ----- POPULATIONS IN EACH AO -----
                             MULLIKEN      LOWDIN
              1  LI 1  S      1.99636     1.97463
              2  LI 1  S      0.33876     0.19456
              3  LI 1  X      0.00393     0.00295
              4  LI 1  Y      0.00393     0.00295
              5  LI 1  Z      0.36416     0.28866
              6  LI 1  S      0.17281     0.18303
              7  LI 1  X     -0.00076     0.00018
              8  LI 1  Y     -0.00076     0.00018
              9  LI 1  Z     -0.04178     0.04711
             10  LI 1 XX     -0.00414     0.04812
             11  LI 1 YY     -0.00414     0.04812
             12  LI 1 ZZ      0.06040     0.18856
             13  LI 1 XY      0.00002     0.00002
             14  LI 1 XZ      0.00243     0.00237
             15  LI 1 YZ      0.00243     0.00237
             16  H  2  S      0.50707     0.45888
             17  H  2  S      0.59422     0.54907
             18  H  2  X      0.00143     0.00153
             19  H  2  Y      0.00143     0.00153
             20  H  2  Z      0.00222     0.00518

          ----- MULLIKEN ATOMIC OVERLAP POPULATIONS -----
          (OFF-DIAGONAL ELEMENTS NEED TO BE MULTIPLIED BY 2)

             1           2

    1    2.5077053
    2    0.3859276   0.7204394

          TOTAL MULLIKEN AND LOWDIN ATOMIC POPULATIONS
       ATOM         MULL.POP.    CHARGE          LOW.POP.     CHARGE
    1 LI            2.893633    0.106367         2.983802    0.016198
    2 H             1.106367   -0.106367         1.016198   -0.016198

          ---------------------
          ELECTROSTATIC MOMENTS
          ---------------------

 POINT   1           X           Y           Z (BOHR)    CHARGE
                 0.000000    0.000000    0.308564        0.00 (A.U.)
         DX          DY          DZ         /D/  (DEBYE)
     0.000000    0.000000   -5.161743    5.161743
 ...... END OF PROPERTY EVALUATION ......
 STEP CPU TIME =     0.00 TOTAL CPU TIME =        0.3 (    0.0 MIN)
 TOTAL WALL CLOCK TIME=        0.4 SECONDS, CPU UTILIZATION IS  78.38%
               580000  WORDS OF DYNAMIC MEMORY USED
 EXECUTION OF GAMESS TERMINATED NORMALLY Thu Jan 17 17:45:08 2019
 DDI: 263640 bytes (0.3 MB / 0 MWords) used by master data server.

 ----------------------------------------
 CPU timing information for all processes
 ========================================
 0: 0.239 + 0.67 = 0.307
 1: 0.10 + 0.52 = 0.63
 ----------------------------------------
 ddikick.x: exited gracefully.
unset echo
----- accounting info -----
Files used on the master node bach.ad64.riken.go.jp were:
-rw-------  1 maho  staff      280  1 17 17:45 .//LiH.631g/1.3/LiH.631g.fullCI.1.3.gamess.F05
-rw-r--r--  1 maho  staff   180016  1 17 17:45 .//LiH.631g/1.3/LiH.631g.fullCI.1.3.gamess.F08
-rw-r--r--  1 maho  staff   181704  1 17 17:45 .//LiH.631g/1.3/LiH.631g.fullCI.1.3.gamess.F09
-rw-r--r--  1 maho  staff  1832320  1 17 17:45 .//LiH.631g/1.3/LiH.631g.fullCI.1.3.gamess.F10
-rw-r--r--  1 maho  staff    78640  1 17 17:45 .//LiH.631g/1.3/LiH.631g.fullCI.1.3.gamess.F12
-rw-r--r--  1 maho  staff    14499  1 17 17:45 .//LiH.631g/1.3/LiH.631g.fullCI.1.3.gamess.dat
-rw-------  1 maho  staff      280  1 17 17:45 .//LiH.631g/1.3/LiH.631g.fullCI.1.3.gamess.inp
-rw-r--r--  1 maho  staff    42390  1 17 17:45 .//LiH.631g/1.3/LiH.631g.fullCI.1.3.gamess.log
ls: No match.
ls: No match.
ls: No match.
2019年 1月17日 木曜日 17時45分11秒 JST
0.366u 0.230s 0:03.60 16.3%	0+0k 0+0io 0pf+0w
