----- GAMESS execution script 'rungms' -----
This job is running on host bach.ad64.riken.go.jp
under operating system Darwin at 2019年 1月17日 木曜日 17時45分04秒 JST
Available scratch disk space (Kbyte units) at beginning of the job is
Filesystem   1024-blocks       Used Available Capacity iused      ifree %iused  Mounted on
/dev/disk2s2  1953178672 1144740184 808438488    59%  984101 4293983178    0%   /Volumes/Users
GAMESS temporary binary files will be written to ./
GAMESS supplementary output files will be written to ./
Copying input file LiH.631g/1.3/LiH.631g.CCSDT.1.3.gamess.inp to your run's scratch directory...
cp LiH.631g/1.3/LiH.631g.CCSDT.1.3.gamess.inp .//LiH.631g/1.3/LiH.631g.CCSDT.1.3.gamess.F05
unset echo
/Volumes/Users/maho/bin/gamess//ddikick.x /Volumes/Users/maho/bin/gamess//gamess.00.x LiH.631g/1.3/LiH.631g.CCSDT.1.3.gamess -ddi 1 1 bach.ad64.riken.go.jp -scr ./

 Distributed Data Interface kickoff program.
 Initiating 1 compute processes on 1 nodes to run the following command:
 /Volumes/Users/maho/bin/gamess//gamess.00.x LiH.631g/1.3/LiH.631g.CCSDT.1.3.gamess 

          ******************************************************
          *         GAMESS VERSION = 18 AUG 2016 (R1)          *
          *             FROM IOWA STATE UNIVERSITY             *
          * M.W.SCHMIDT, K.K.BALDRIDGE, J.A.BOATZ, S.T.ELBERT, *
          *   M.S.GORDON, J.H.JENSEN, S.KOSEKI, N.MATSUNAGA,   *
          *          K.A.NGUYEN, S.J.SU, T.L.WINDUS,           *
          *       TOGETHER WITH M.DUPUIS, J.A.MONTGOMERY       *
          *         J.COMPUT.CHEM.  14, 1347-1363(1993)        *
          **************** 64 BIT APPLE VERSION ****************

  SINCE 1993, STUDENTS AND POSTDOCS WORKING AT IOWA STATE UNIVERSITY
  AND ALSO IN THEIR VARIOUS JOBS AFTER LEAVING ISU HAVE MADE IMPORTANT
  CONTRIBUTIONS TO THE CODE:
     IVANA ADAMOVIC, CHRISTINE AIKENS, YURI ALEXEEV, POOJA ARORA,
     ANDREY ASADCHEV, ROB BELL, PRADIPTA BANDYOPADHYAY, JONATHAN BENTZ,
     BRETT BODE, KURT BRORSEN, CALEB CARLIN, GALINA CHABAN, WEI CHEN,
     CHEOL HO CHOI, PAUL DAY, ALBERT DEFUSCO, NUWAN DESILVA, TIM DUDLEY,
     DMITRI FEDOROV, GRAHAM FLETCHER, MARK FREITAG, KURT GLAESEMANN,
     DAN KEMP, GRANT MERRILL, NORIYUKI MINEZAWA, JONATHAN MULLIN,
     TAKESHI NAGATA, SEAN NEDD, HEATHER NETZLOFF, BOSILJKA NJEGIC, RYAN OLSON,
     MIKE PAK, SPENCER PRUITT, LUKE ROSKOP, JIM SHOEMAKER, LYUDMILA SLIPCHENKO,
     TONY SMITH, SAROM SOK LEANG, JIE SONG, TETSUYA TAKETSUGU, SIMON WEBB,
     PENG XU, SOOHAENG YOO, FEDERICO ZAHARIEV

  ADDITIONAL CODE HAS BEEN PROVIDED BY COLLABORATORS IN OTHER GROUPS:
     IOWA STATE UNIVERSITY:
          JOE IVANIC, AARON WEST, LAIMUTIS BYTAUTAS, KLAUS RUEDENBERG
     UNIVERSITY OF TOKYO: KIMIHIKO HIRAO, TAKAHITO NAKAJIMA,
          TAKAO TSUNEDA, MUNEAKI KAMIYA, SUSUMU YANAGISAWA,
          KIYOSHI YAGI, MAHITO CHIBA, SEIKEN TOKURA, NAOAKI KAWAKAMI
     UNIVERSITY OF AARHUS: FRANK JENSEN
     UNIVERSITY OF IOWA: VISVALDAS KAIRYS, HUI LI
     NATIONAL INST. OF STANDARDS AND TECHNOLOGY: WALT STEVENS, DAVID GARMER
     UNIVERSITY OF PISA: BENEDETTA MENNUCCI, JACOPO TOMASI
     UNIVERSITY OF MEMPHIS: HENRY KURTZ, PRAKASHAN KORAMBATH
     UNIVERSITY OF ALBERTA: TOBY ZENG, MARIUSZ KLOBUKOWSKI
     UNIVERSITY OF NEW ENGLAND: MARK SPACKMAN
     MIE UNIVERSITY: HIROAKI UMEDA
     NAT. INST. OF ADVANCED INDUSTRIAL SCIENCE AND TECHNOLOGY: KAZUO KITAURA
     MICHIGAN STATE UNIVERSITY:
          KAROL KOWALSKI, MARTA WLOCH, JEFFREY GOUR, JESSE LUTZ,
          WEI LI, PIOTR PIECUCH
     UNIVERSITY OF SILESIA: MONIKA MUSIAL, STANISLAW KUCHARSKI
     FACULTES UNIVERSITAIRES NOTRE-DAME DE LA PAIX:
          OLIVIER QUINET, BENOIT CHAMPAGNE
     UNIVERSITY OF CALIFORNIA - SANTA BARBARA: BERNARD KIRTMAN
     INSTITUTE FOR MOLECULAR SCIENCE:
          KAZUYA ISHIMURA, MICHIO KATOUDA, AND SHIGERU NAGASE
     UNIVERSITY OF NOTRE DAME: ANNA POMOGAEVA, DAN CHIPMAN
     KYUSHU UNIVERSITY:
          HARUYUKI NAKANO,
          FENG LONG GU, JACEK KORCHOWIEC, MARCIN MAKOWSKI, AND YURIKO AOKI,
          HIROTOSHI MORI AND EISAKU MIYOSHI
     PENNSYLVANIA STATE UNIVERSITY:
          TZVETELIN IORDANOV, CHET SWALINA, JONATHAN SKONE,
          SHARON HAMMES-SCHIFFER
     WASEDA UNIVERSITY:
          MASATO KOBAYASHI, TOMOKO AKAMA, TSUGUKI TOUMA,
          TAKESHI YOSHIKAWA, YASUHIRO IKABATA, JUNJI SEINO,
          YUYA NAKAJIMA, HIROMI NAKAI
     NANJING UNIVERSITY: SHUHUA LI
     UNIVERSITY OF NEBRASKA:
          PEIFENG SU, DEJUN SI, NANDUN THELLAMUREGE, YALI WANG, HUI LI
     UNIVERSITY OF ZURICH: ROBERTO PEVERATI, KIM BALDRIDGE
     N. COPERNICUS UNIVERSITY AND JACKSON STATE UNIVERSITY:
          MARIA BARYSZ
     UNIVERSITY OF COPENHAGEN: Jimmy Kromann, CASPER STEINMANN
     TOKYO INSTITUTE OF TECHNOLOGY: HIROYA NAKATA
     NAGOYA UNIVERSITY: YOSHIO NISHIMOTO, STEPHAN IRLE
     MOSCOW STATE UNIVERSITY: VLADIMIR MIRONOV

 EXECUTION OF GAMESS BEGUN Thu Jan 17 17:45:04 2019

            ECHO OF THE FIRST FEW INPUT CARDS -
 INPUT CARD> $CONTRL MULT=1 SCFTYP=RHF CCTYP=CCSD(T) $END                                   
 INPUT CARD> $BASIS GBASIS=N31 NGAUSS=6 NDFUNC=1 NPFUNC=1 $END                              
 INPUT CARD> $CCINP NCORE=0 $END                                                            
 INPUT CARD> $GUESS GUESS=HUCKEL $END                                                       
 INPUT CARD> $DATA                                                                          
 INPUT CARD>LiH...HF...6-31G* basis                                                         
 INPUT CARD>Cnv   2                                                                         
 INPUT CARD>                                                                                
 INPUT CARD>Li    3.0    0.0      0.0     0.0                                               
 INPUT CARD>H     1.0    0.0      0.0     1.3                                               
 INPUT CARD> $END                                                                           
    1000000 WORDS OF MEMORY AVAILABLE

     BASIS OPTIONS
     -------------
     GBASIS=N31          IGAUSS=       6      POLAR=POPN31  
     NDFUNC=       1     NFFUNC=       0     DIFFSP=       F
     NPFUNC=       1      DIFFS=       F     BASNAM=        


     RUN TITLE
     ---------
 LiH...HF...6-31G* basis                                                         

 THE POINT GROUP OF THE MOLECULE IS CNV     
 THE ORDER OF THE PRINCIPAL AXIS IS     2

 ATOM      ATOMIC                      COORDINATES (BOHR)
           CHARGE         X                   Y                   Z
 LI          3.0     0.0000000000        0.0000000000        0.0000000000
 H           1.0     0.0000000000        0.0000000000        2.4566437840

          INTERNUCLEAR DISTANCES (ANGS.)
          ------------------------------

                1 LI         2 H     

   1 LI      0.0000000    1.3000000 *
   2 H       1.3000000 *  0.0000000  

  * ... LESS THAN  3.000


     ATOMIC BASIS SET
     ----------------
 THE CONTRACTED PRIMITIVE FUNCTIONS HAVE BEEN UNNORMALIZED
 THE CONTRACTED BASIS FUNCTIONS ARE NOW NORMALIZED TO UNITY

  SHELL TYPE  PRIMITIVE        EXPONENT          CONTRACTION COEFFICIENT(S)

 LI        

      1   S       1           642.4189150    0.002142607810
      1   S       2            96.7985153    0.016208871501
      1   S       3            22.0911212    0.077315572504
      1   S       4             6.2010702    0.245786052013
      1   S       5             1.9351177    0.470189004025
      1   S       6             0.6367358    0.345470845019

      2   L       7             2.3249184   -0.035091745735    0.008941508043
      2   L       8             0.6324304   -0.191232843103    0.141009464046
      2   L       9             0.0790534    1.083987794916    0.945363695309

      3   L      10             0.0359620    1.000000000000    1.000000000000

      4   D      11             0.2000000    1.000000000000

 H         

      5   S      12            18.7311370    0.033494604338
      5   S      13             2.8253944    0.234726953484
      5   S      14             0.6401217    0.813757326146

      6   S      15             0.1612778    1.000000000000

      7   P      16             1.1000000    1.000000000000

 TOTAL NUMBER OF BASIS SET SHELLS             =    7
 NUMBER OF CARTESIAN GAUSSIAN BASIS FUNCTIONS =   20
 NUMBER OF ELECTRONS                          =    4
 CHARGE OF MOLECULE                           =    0
 SPIN MULTIPLICITY                            =    1
 NUMBER OF OCCUPIED ORBITALS (ALPHA)          =    2
 NUMBER OF OCCUPIED ORBITALS (BETA )          =    2
 TOTAL NUMBER OF ATOMS                        =    2
 THE NUCLEAR REPULSION ENERGY IS        1.2211782675

 THIS MOLECULE IS RECOGNIZED AS BEING LINEAR,
 ORBITAL LZ DEGENERACY TOLERANCE ETOLLZ= 1.00E-06

     $CONTRL OPTIONS
     ---------------
 SCFTYP=RHF          RUNTYP=ENERGY       EXETYP=RUN     
 MPLEVL=       0     CITYP =NONE         CCTYP =CCSD(T)      VBTYP =NONE    
 DFTTYP=NONE         TDDFT =NONE    
 MULT  =       1     ICHARG=       0     NZVAR =       0     COORD =UNIQUE  
 PP    =NONE         RELWFN=NONE         LOCAL =NONE         NUMGRD=       F
 ISPHER=      -1     NOSYM =       0     MAXIT =      30     UNITS =ANGS    
 PLTORB=       F     MOLPLT=       F     AIMPAC=       F     FRIEND=        
 NPRINT=       7     IREST =       0     GEOM  =INPUT   
 NORMF =       0     NORMP =       0     ITOL  =      20     ICUT  =       9
 INTTYP=BEST         GRDTYP=BEST         QMTTOL= 1.0E-06

     $SYSTEM OPTIONS
     ---------------
  REPLICATED MEMORY=     1000000 WORDS (ON EVERY NODE).
 DISTRIBUTED MEMDDI=           0 MILLION WORDS IN AGGREGATE,
 MEMDDI DISTRIBUTED OVER   1 PROCESSORS IS           0 WORDS/PROCESSOR.
 TOTAL MEMORY REQUESTED ON EACH PROCESSOR=     1000000 WORDS.
 TIMLIM=      525600.00 MINUTES, OR     365.0 DAYS.
 PARALL= F  BALTYP=  DLB     KDIAG=    0  COREFL= F
 MXSEQ2=     300 MXSEQ3=     150  mem10=         0

          ----------------
          PROPERTIES INPUT
          ----------------

     MOMENTS            FIELD           POTENTIAL          DENSITY
 IEMOM =       1   IEFLD =       0   IEPOT =       0   IEDEN =       0
 WHERE =COMASS     WHERE =NUCLEI     WHERE =NUCLEI     WHERE =NUCLEI  
 OUTPUT=BOTH       OUTPUT=BOTH       OUTPUT=BOTH       OUTPUT=BOTH    
 IEMINT=       0   IEFINT=       0                     IEDINT=       0
                                                       MORB  =       0
          EXTRAPOLATION IN EFFECT
          SOSCF IN EFFECT
 ORBITAL PRINTING OPTION: NPREO=     1    20     2     1

     -------------------------------
     INTEGRAL TRANSFORMATION OPTIONS
     -------------------------------
     NWORD  =            0
     CUTOFF = 1.0E-09     MPTRAN =       0
     DIRTRF =       F     AOINTS =DUP     

          ----------------------
          INTEGRAL INPUT OPTIONS
          ----------------------
 NOPK  =       1 NORDER=       0 SCHWRZ=       F

     ------------------------------------------
     THE POINT GROUP IS CNV, NAXIS= 2, ORDER= 4
     ------------------------------------------

     DIMENSIONS OF THE SYMMETRY SUBSPACES ARE
 A1  =   11     A2  =    1     B1  =    4     B2  =    4

 ..... DONE SETTING UP THE RUN .....
 STEP CPU TIME =     0.00 TOTAL CPU TIME =        0.0 (    0.0 MIN)
 TOTAL WALL CLOCK TIME=        0.0 SECONDS, CPU UTILIZATION IS   0.00%

          ********************
          1 ELECTRON INTEGRALS
          ********************
 ...... END OF ONE-ELECTRON INTEGRALS ......
 STEP CPU TIME =     0.00 TOTAL CPU TIME =        0.0 (    0.0 MIN)
 TOTAL WALL CLOCK TIME=        0.0 SECONDS, CPU UTILIZATION IS   0.00%

          -------------
          GUESS OPTIONS
          -------------
          GUESS =HUCKEL            NORB  =       0          NORDER=       0
          MIX   =       F          PRTMO =       F          PUNMO =       F
          TOLZ  = 1.0E-08          TOLE  = 1.0E-05
          SYMDEN=       F          PURIFY=       F

 INITIAL GUESS ORBITALS GENERATED BY HUCKEL   ROUTINE.
 HUCKEL GUESS REQUIRES      4469 WORDS.

 SYMMETRIES FOR INITIAL GUESS ORBITALS FOLLOW.   BOTH SET(S).
     2 ORBITALS ARE OCCUPIED (    1 CORE ORBITALS).
     2=A1       3=A1       4=A1       5=A1       6=A1       7=A1       8=A1  
     9=A1      10=A1      11=A1      12=A2  
 ...... END OF INITIAL ORBITAL SELECTION ......
 STEP CPU TIME =     0.01 TOTAL CPU TIME =        0.0 (    0.0 MIN)
 TOTAL WALL CLOCK TIME=        0.0 SECONDS, CPU UTILIZATION IS  50.00%

                    ----------------------
                    AO INTEGRAL TECHNOLOGY
                    ----------------------
     S,P,L SHELL ROTATED AXIS INTEGRALS, REPROGRAMMED BY
        KAZUYA ISHIMURA (IMS) AND JOSE SIERRA (SYNSTAR).
     S,P,D,L SHELL ROTATED AXIS INTEGRALS PROGRAMMED BY
        KAZUYA ISHIMURA (INSTITUTE FOR MOLECULAR SCIENCE).
     S,P,D,F,G SHELL TO TOTAL QUARTET ANGULAR MOMENTUM SUM 5,
        ERIC PROGRAM BY GRAHAM FLETCHER (ELORET AND NASA ADVANCED
        SUPERCOMPUTING DIVISION, AMES RESEARCH CENTER).
     S,P,D,F,G,L SHELL GENERAL RYS QUADRATURE PROGRAMMED BY
        MICHEL DUPUIS (PACIFIC NORTHWEST NATIONAL LABORATORY).

          --------------------
          2 ELECTRON INTEGRALS
          --------------------

 THE -PK- OPTION IS OFF, THE INTEGRALS ARE NOT IN SUPERMATRIX FORM.
 STORING   15000 INTEGRALS/RECORD ON DISK, USING 12 BYTES/INTEGRAL.
 TWO ELECTRON INTEGRAL EVALUATION REQUIRES   90424 WORDS OF MEMORY.
 II,JST,KST,LST =  1  1  1  1 NREC =         1 INTLOC =    1
 II,JST,KST,LST =  2  1  1  1 NREC =         1 INTLOC =    2
 II,JST,KST,LST =  3  1  1  1 NREC =         1 INTLOC =   34
 II,JST,KST,LST =  4  1  1  1 NREC =         1 INTLOC =  214
 II,JST,KST,LST =  5  1  1  1 NREC =         1 INTLOC = 1189
 II,JST,KST,LST =  6  1  1  1 NREC =         1 INTLOC = 1867
 II,JST,KST,LST =  7  1  1  1 NREC =         1 INTLOC = 2713
 TOTAL NUMBER OF NONZERO TWO-ELECTRON INTEGRALS =                5596
          1 INTEGRAL RECORDS WERE STORED ON DISK FILE  8.
  ...... END OF TWO-ELECTRON INTEGRALS .....
 STEP CPU TIME =     0.02 TOTAL CPU TIME =        0.0 (    0.0 MIN)
 TOTAL WALL CLOCK TIME=        0.0 SECONDS, CPU UTILIZATION IS  75.00%

          --------------------------
                 RHF SCF CALCULATION
          --------------------------

     NUCLEAR ENERGY =         1.2211782675
     MAXIT =   30     NPUNCH=    2
     EXTRAP=T  DAMP=F  SHIFT=F  RSTRCT=F  DIIS=F  DEM=F  SOSCF=T
     DENSITY MATRIX CONV=  1.00E-06
     SOSCF WILL OPTIMIZE      36 ORBITAL ROTATIONS, SOGTOL=   0.250
     MEMORY REQUIRED FOR RHF ITERS=     33224 WORDS.

 ITER EX DEM     TOTAL ENERGY        E CHANGE  DENSITY CHANGE     ORB. GRAD
   1  0  0       -7.8880144305    -7.8880144305   0.239217545   0.000000000
          ---------------START SECOND ORDER SCF---------------
   2  1  0       -7.9554381862    -0.0674237558   0.065626848   0.019611672
   3  2  0       -7.9608054675    -0.0053672813   0.052813991   0.008068897
   4  3  0       -7.9619440007    -0.0011385332   0.004921752   0.001437265
   5  4  0       -7.9619584611    -0.0000144603   0.001275806   0.000251488
   6  5  0       -7.9619587467    -0.0000002857   0.000159889   0.000017483
   7  6  0       -7.9619587512    -0.0000000044   0.000023917   0.000003567
   8  7  0       -7.9619587514    -0.0000000002   0.000001811   0.000000432
   9  8  0       -7.9619587514    -0.0000000000   0.000000282   0.000000063

 RHF HAS CONVERGED, NOW COMPUTING EXACT TOTAL FOCK MATRIX
 FOR USE DURING THE COUPLED CLUSTER CALCULATION THAT FOLLOWS.

          -----------------
          DENSITY CONVERGED
          -----------------
     TIME TO FORM FOCK OPERATORS=       0.0 SECONDS (       0.0 SEC/ITER)
     TIME TO SOLVE SCF EQUATIONS=       0.0 SECONDS (       0.0 SEC/ITER)

 FINAL RHF ENERGY IS       -7.9619587514 AFTER   9 ITERATIONS

 LZ VALUE ANALYSIS FOR THE MOS
 ----------------------------------------
 MO     1 (    1) HAS LZ(WEIGHT)= 0.00(100.0%) 
 MO     2 (    2) HAS LZ(WEIGHT)= 0.00(100.0%) 
 MO     3 (    3) HAS LZ(WEIGHT)= 0.00(100.0%) 
 MO     4 (    4) HAS LZ(WEIGHT)=-1.00( 50.0%)  1.00( 50.0%) 
 MO     5 (    4) HAS LZ(WEIGHT)=-1.00( 50.0%)  1.00( 50.0%) 
 MO     6 (    5) HAS LZ(WEIGHT)= 0.00(100.0%) 
 MO     7 (    6) HAS LZ(WEIGHT)= 0.00(100.0%) 
 MO     8 (    7) HAS LZ(WEIGHT)=-1.00( 50.0%)  1.00( 50.0%) 
 MO     9 (    7) HAS LZ(WEIGHT)=-1.00( 50.0%)  1.00( 50.0%) 
 MO    10 (    8) HAS LZ(WEIGHT)= 0.00(100.0%) 
 MO    11 (    9) HAS LZ(WEIGHT)=-1.00( 50.0%)  1.00( 50.0%) 
 MO    12 (    9) HAS LZ(WEIGHT)=-1.00( 50.0%)  1.00( 50.0%) 
 MO    13 (   10) HAS LZ(WEIGHT)=-2.00( 50.0%)  2.00( 50.0%) 
 MO    14 (   10) HAS LZ(WEIGHT)=-2.00( 50.0%)  2.00( 50.0%) 
 MO    15 (   11) HAS LZ(WEIGHT)= 0.00(100.0%) 
 MO    16 (   12) HAS LZ(WEIGHT)= 0.00(100.0%) 
 MO    17 (   13) HAS LZ(WEIGHT)= 0.00(100.0%) 
 MO    18 (   14) HAS LZ(WEIGHT)= 0.00(100.0%) 
 MO    19 (   15) HAS LZ(WEIGHT)=-1.00( 50.0%)  1.00( 50.0%) 
 MO    20 (   15) HAS LZ(WEIGHT)=-1.00( 50.0%)  1.00( 50.0%) 

          ------------
          EIGENVECTORS
          ------------

                      1          2          3          4          5
                   -2.4328    -0.3150     0.0140     0.0631     0.0631
                     A1         A1         A1         B1         B2  
    1  LI 1  S    0.996695  -0.164796  -0.126377  -0.000000  -0.000000
    2  LI 1  S   -0.010149   0.243283  -0.405962  -0.000000  -0.000000
    3  LI 1  X    0.000000  -0.000000  -0.000000  -0.004653  -0.000000
    4  LI 1  Y    0.000000  -0.000000  -0.000000  -0.000000  -0.004653
    5  LI 1  Z   -0.014706   0.317686  -0.125903  -0.000000  -0.000000
    6  LI 1  S   -0.000236   0.123693   1.035617  -0.000000  -0.000000
    7  LI 1  X    0.000000  -0.000000  -0.000000   1.002997  -0.000000
    8  LI 1  Y    0.000000  -0.000000  -0.000000  -0.000000   1.002997
    9  LI 1  Z    0.006864  -0.056599  -0.503589  -0.000000  -0.000000
   10  LI 1 XX    0.008067  -0.010810   0.059815  -0.000000  -0.000000
   11  LI 1 YY    0.008067  -0.010810   0.059815  -0.000000  -0.000000
   12  LI 1 ZZ    0.004134   0.044970   0.109413  -0.000000  -0.000000
   13  LI 1 XY    0.000000  -0.000000  -0.000000  -0.000000  -0.000000
   14  LI 1 XZ    0.000000  -0.000000  -0.000000  -0.025957  -0.000000
   15  LI 1 YZ    0.000000  -0.000000  -0.000000  -0.000000  -0.025957
   16  H  2  S    0.006461   0.317522  -0.062262  -0.000000  -0.000000
   17  H  2  S    0.010391   0.346333  -0.145486  -0.000000  -0.000000
   18  H  2  X    0.000000  -0.000000  -0.000000   0.007252  -0.000000
   19  H  2  Y    0.000000  -0.000000  -0.000000  -0.000000   0.007252
   20  H  2  Z   -0.001497  -0.015030   0.004420  -0.000000  -0.000000

                      6          7          8          9         10
                    0.1378     0.1975     0.2259     0.2259     0.4160
                     A1         A1         B1         B2         A1  
    1  LI 1  S   -0.026005   0.021589   0.000000   0.000000   0.156577
    2  LI 1  S   -0.573301   2.581638   0.000000   0.000000   2.226279
    3  LI 1  X   -0.000000   0.000000   1.669128   0.000000   0.000000
    4  LI 1  Y   -0.000000   0.000000   0.000000   1.669128   0.000000
    5  LI 1  Z   -0.601323  -1.035224   0.000000   0.000000   1.470275
    6  LI 1  S    0.996685  -2.044153   0.000000   0.000000  -0.903004
    7  LI 1  X   -0.000000   0.000000  -1.338989   0.000000   0.000000
    8  LI 1  Y   -0.000000   0.000000   0.000000  -1.338989   0.000000
    9  LI 1  Z    1.302120   0.665942   0.000000   0.000000  -0.590353
   10  LI 1 XX    0.086252  -0.257780   0.000000   0.000000   0.012608
   11  LI 1 YY    0.086252  -0.257780   0.000000   0.000000   0.012608
   12  LI 1 ZZ    0.104715  -0.230383   0.000000   0.000000  -0.597371
   13  LI 1 XY   -0.000000   0.000000   0.000000   0.000000   0.000000
   14  LI 1 XZ   -0.000000   0.000000  -0.059057   0.000000   0.000000
   15  LI 1 YZ   -0.000000   0.000000   0.000000  -0.059057   0.000000
   16  H  2  S   -0.096777  -0.030342   0.000000   0.000000  -0.085355
   17  H  2  S   -0.469572   0.245499   0.000000   0.000000  -1.196505
   18  H  2  X   -0.000000   0.000000   0.012785   0.000000   0.000000
   19  H  2  Y   -0.000000   0.000000   0.000000   0.012785   0.000000
   20  H  2  Z    0.004393   0.005540   0.000000   0.000000  -0.003953

                     11         12         13         14         15
                    0.5726     0.5726     0.5881     0.5881     0.9200
                     B1         B2         A2         A1         A1  
    1  LI 1  S    0.000000   0.000000   0.000000   0.000000   0.463415
    2  LI 1  S    0.000000   0.000000   0.000000   0.000000   3.980644
    3  LI 1  X    0.092205   0.000000   0.000000   0.000000  -0.000000
    4  LI 1  Y    0.000000   0.092205   0.000000   0.000000  -0.000000
    5  LI 1  Z    0.000000   0.000000   0.000000   0.000000   2.759867
    6  LI 1  S    0.000000   0.000000   0.000000   0.000000  -1.009618
    7  LI 1  X   -0.050164   0.000000   0.000000   0.000000  -0.000000
    8  LI 1  Y    0.000000  -0.050164   0.000000   0.000000  -0.000000
    9  LI 1  Z    0.000000   0.000000   0.000000   0.000000  -0.689526
   10  LI 1 XX    0.000000   0.000000   0.000000  -0.866025  -1.153847
   11  LI 1 YY    0.000000   0.000000   0.000000   0.866025  -1.153847
   12  LI 1 ZZ    0.000000   0.000000   0.000000   0.000000   1.145350
   13  LI 1 XY    0.000000   0.000000   1.000000   0.000000  -0.000000
   14  LI 1 XZ    0.997783   0.000000   0.000000   0.000000  -0.000000
   15  LI 1 YZ    0.000000   0.997783   0.000000   0.000000  -0.000000
   16  H  2  S    0.000000   0.000000   0.000000   0.000000  -0.000468
   17  H  2  S    0.000000   0.000000   0.000000   0.000000  -3.532410
   18  H  2  X    0.001366   0.000000   0.000000   0.000000  -0.000000
   19  H  2  Y    0.000000   0.001366   0.000000   0.000000  -0.000000
   20  H  2  Z    0.000000   0.000000   0.000000   0.000000   0.028403

                     16         17         18         19         20
                    1.1967     1.3893     2.5983     2.6470     2.6470
                     A1         A1         A1         B1         B2  
    1  LI 1  S    0.042414   0.136868   0.257542  -0.000000  -0.000000
    2  LI 1  S    8.657857   3.068070   2.040673  -0.000000  -0.000000
    3  LI 1  X   -0.000000  -0.000000   0.000000  -0.232171  -0.000000
    4  LI 1  Y   -0.000000  -0.000000   0.000000  -0.000000  -0.232171
    5  LI 1  Z   -0.193191  -0.216096   1.095239  -0.000000  -0.000000
    6  LI 1  S   -2.757072  -0.708692  -0.609084  -0.000000  -0.000000
    7  LI 1  X   -0.000000  -0.000000   0.000000   0.117149  -0.000000
    8  LI 1  Y   -0.000000  -0.000000   0.000000  -0.000000   0.117149
    9  LI 1  Z   -0.028397   0.345602  -0.367660  -0.000000  -0.000000
   10  LI 1 XX   -2.968787  -0.793855  -0.471713  -0.000000  -0.000000
   11  LI 1 YY   -2.968787  -0.793855  -0.471713  -0.000000  -0.000000
   12  LI 1 ZZ   -2.992193  -1.415125   0.045045  -0.000000  -0.000000
   13  LI 1 XY   -0.000000  -0.000000   0.000000  -0.000000  -0.000000
   14  LI 1 XZ   -0.000000  -0.000000   0.000000  -0.313565  -0.000000
   15  LI 1 YZ   -0.000000  -0.000000   0.000000  -0.000000  -0.313565
   16  H  2  S   -0.322295   1.406568   0.150542  -0.000000  -0.000000
   17  H  2  S    0.629883  -1.193480  -1.331510  -0.000000  -0.000000
   18  H  2  X   -0.000000  -0.000000   0.000000   1.057221  -0.000000
   19  H  2  Y   -0.000000  -0.000000   0.000000  -0.000000   1.057221
   20  H  2  Z    0.074035  -0.068125   1.069130  -0.000000  -0.000000
 ...... END OF RHF CALCULATION ......
 STEP CPU TIME =     0.01 TOTAL CPU TIME =        0.0 (    0.0 MIN)
 TOTAL WALL CLOCK TIME=        0.3 SECONDS, CPU UTILIZATION IS  13.33%

     ----------------------------------------------------------------
     PROPERTY VALUES FOR THE RHF   SELF-CONSISTENT FIELD WAVEFUNCTION
     ----------------------------------------------------------------

          ---------------------------------------
          MULLIKEN AND LOWDIN POPULATION ANALYSES
          ---------------------------------------

               ----- POPULATIONS IN EACH AO -----
                             MULLIKEN      LOWDIN
              1  LI 1  S      1.99674     1.97495
              2  LI 1  S      0.32086     0.18577
              3  LI 1  X      0.00000     0.00000
              4  LI 1  Y      0.00000     0.00000
              5  LI 1  Z      0.38563     0.31056
              6  LI 1  S      0.14694     0.16680
              7  LI 1  X      0.00000     0.00000
              8  LI 1  Y      0.00000     0.00000
              9  LI 1  Z     -0.04634     0.04970
             10  LI 1 XX     -0.00659     0.04325
             11  LI 1 YY     -0.00659     0.04325
             12  LI 1 ZZ      0.06268     0.19199
             13  LI 1 XY      0.00000     0.00000
             14  LI 1 XZ      0.00000     0.00000
             15  LI 1 YZ      0.00000     0.00000
             16  H  2  S      0.48718     0.44959
             17  H  2  S      0.65830     0.58017
             18  H  2  X      0.00000     0.00000
             19  H  2  Y      0.00000     0.00000
             20  H  2  Z      0.00120     0.00398

          ----- MULLIKEN ATOMIC OVERLAP POPULATIONS -----
          (OFF-DIAGONAL ELEMENTS NEED TO BE MULTIPLIED BY 2)

             1           2

    1    2.4386816
    2    0.4146435   0.7320314

          TOTAL MULLIKEN AND LOWDIN ATOMIC POPULATIONS
       ATOM         MULL.POP.    CHARGE          LOW.POP.     CHARGE
    1 LI            2.853325    0.146675         2.966263    0.033737
    2 H             1.146675   -0.146675         1.033737   -0.033737

          -------------------------------
          BOND ORDER AND VALENCE ANALYSIS     BOND ORDER THRESHOLD=0.050
          -------------------------------

                   BOND                       BOND                       BOND
  ATOM PAIR DIST  ORDER      ATOM PAIR DIST  ORDER      ATOM PAIR DIST  ORDER
    1   2  1.300  0.980

                       TOTAL       BONDED        FREE
      ATOM            VALENCE     VALENCE     VALENCE
    1 LI                0.980       0.980      -0.000
    2 H                 0.980       0.980      -0.000

          ---------------------
          ELECTROSTATIC MOMENTS
          ---------------------

 POINT   1           X           Y           Z (BOHR)    CHARGE
                 0.000000    0.000000    0.308564        0.00 (A.U.)
         DX          DY          DZ         /D/  (DEBYE)
     0.000000    0.000000   -5.365658    5.365658
 ...... END OF PROPERTY EVALUATION ......
 STEP CPU TIME =     0.00 TOTAL CPU TIME =        0.0 (    0.0 MIN)
 TOTAL WALL CLOCK TIME=        0.3 SECONDS, CPU UTILIZATION IS  13.33%

     ---------------------------
     COUPLED CLUSTER CALCULATION
     ---------------------------
 CCTYP                        =CCSD(T) 
 TOTAL NUMBER OF MOS          =    20
 NUMBER OF OCCUPIED MOS       =     2
 NUMBER OF FROZEN CORE MOS    =     0
 NUMBER OF FROZEN VIRTUAL MOS =     0
 MAXIMUM CC ITERATIONS        =    30
 MAXIMUM DIIS ITERATIONS      =     5
 CONVERGENCE CRITERION FOR CC =     7
 AMPLITUDE ACCURACY THRESHOLD = 0.0E+00

     --------------------------------------------
     PARTIAL TWO ELECTRON INTEGRAL TRANSFORMATION
     --------------------------------------------

 NUMBER OF CORE MOLECULAR ORBITALS     =    0
 NUMBER OF OCCUPIED MOLECULAR ORBITALS =   20
 TOTAL NUMBER OF MOLECULAR ORBITALS    =   20
 TOTAL NUMBER OF ATOMIC ORBITALS       =   20
 THRESHOLD FOR KEEPING TRANSFORMED 2E- INTEGRALS = 1.000E-09
 AO INTEGRALS WILL BE READ IN FROM DISK...

 PLAN A: REQUIREMENTS FOR FULLY IN-MEMORY TRANSFORMATION:
 # OF WORDS AVAILABLE =              1000000
 # OF WORDS NEEDED    =               146042

 CHOOSING IN MEMORY PARTIAL TRANSFORMATION...
 TOTAL NUMBER OF TRANSFORMED 2E- INTEGRALS KEPT =         5962
 ... END OF INTEGRAL TRANSFORMATION ...
 STEP CPU TIME =     0.00 TOTAL CPU TIME =        0.0 (    0.0 MIN)
 TOTAL WALL CLOCK TIME=        0.3 SECONDS, CPU UTILIZATION IS  12.90%

   -----------------------
   COUPLED-CLUSTER PROGRAM
   -----------------------

   -------------------------------------------------------
   P.PIECUCH, S.A.KUCHARSKI, M.WLOCH, K.KOWALSKI, M.MUSIAL
   -------------------------------------------------------

 *****************************************************************
 THE FOLLOWING PAPERS SHOULD BE CITED WHEN USING COUPLED-CLUSTER
 OPTIONS:

 CCTYP = LCCD, CCD, CCSD, CCSD(T)
 P. PIECUCH, S.A. KUCHARSKI, K. KOWALSKI, AND M. MUSIAL,
 COMP. PHYS. COMMUN. 149, 71-96 (2002).

 CCTYP = R-CC, CR-CC, CCSD(TQ), CR-CC(Q)
 P. PIECUCH, S.A. KUCHARSKI, K. KOWALSKI, AND M. MUSIAL,
 COMP. PHYS. COMMUN. 149, 71-96 (2002);
 K. KOWALSKI AND P. PIECUCH, J. CHEM. PHYS. 113, 18-35 (2000);
 K. KOWALSKI AND P. PIECUCH, J. CHEM. PHYS. 113, 5644-5652 (2000).

 CCTYP = EOM-CCSD, CR-EOM
 P. PIECUCH, S.A. KUCHARSKI, K. KOWALSKI, AND M. MUSIAL,
 COMP. PHYS. COMMUN. 149, 71-96 (2002);
 K. KOWALSKI AND P. PIECUCH, J. CHEM. PHYS. 120, 1715-1738 (2004);
 M. WLOCH, J.R. GOUR, K. KOWALSKI, AND P. PIECUCH,
 J. CHEM. PHYS. 122, 214107-1 - 214107-15 (2005).

 CCTYP = CR-CCL
 P. PIECUCH, S.A. KUCHARSKI, K. KOWALSKI, AND M. MUSIAL,
 COMP. PHYS. COMMUN. 149, 71-96 (2002);
 P. PIECUCH AND M. WLOCH, J. CHEM. PHYS. 123,
 224105-1 - 224105-10 (2005).

 CCTYP = CR-EOML
 P. PIECUCH, S.A. KUCHARSKI, K. KOWALSKI, AND M. MUSIAL,
 COMP. PHYS. COMMUN. 149, 71-96 (2002);
 P. PIECUCH, J. R. GOUR, AND M. WLOCH,
 INT. J. QUANTUM CHEM. 109, 3268-3304 (2009);
 K. KOWALSKI AND P. PIECUCH,
 J. CHEM. PHYS. 120, 1715-1738 (2004).

 IN ADDITION, THE USE OF CCPRP=.TRUE. IN $CCINP AND/OR THE USE
 OF CCPRPE=.TRUE. IN $EOMINP SHOULD REFERENCE

 M. WLOCH, J.R. GOUR, K. KOWALSKI, AND P. PIECUCH,
 J. CHEM. PHYS. 122, 214107-1 - 214107-15 (2005).
 *****************************************************************


 THE FOLLOWING CALCULATIONS WILL BE PERFORMED:
                                                     CCSD   
                                                     CCSD[T]
                                                     CCSD(T)

 THE FOLLOWING ENERGY WILL BE CONSIDERED THE HIGHEST LEVEL:    CCSD(T)
 THE AVAILABLE REPLICATED MEMORY IS     1000000 WORDS.
 CONVERGENCE THRESHOLD:   1.0E-07
 MAXIMUM NUMBER OF ITERATIONS:   30

 MEMORY TO BE USED IN CC INTEGRAL SORTING IS      140808 WORDS.
 THE MINIMUM MEMORY TO ACCOMPLISH SORTING IS       47496 WORDS.
         5962 NON-ZERO TRANSFORMED 2E- INTEGRALS WERE SORTED INTO FILE 72:
            6 [IJ|KL] TYPE,          48 [AJ|KL] TYPE,
          174 [AB|IJ] TYPE,         214 [IA|BJ] TYPE,
         1672 [AB|CI] TYPE,        3848 [AB|CD] TYPE.
 TRANSFORMED INTEGRAL FILE  9 WAS READ    3 TIMES.
 ....... DONE WITH CC INTEGRAL PREPARATION .......
 STEP CPU TIME =     0.02 TOTAL CPU TIME =        0.1 (    0.0 MIN)
 TOTAL WALL CLOCK TIME=        0.3 SECONDS, CPU UTILIZATION IS  18.75%

 MEMORY REQUIRED FOR THE CCSD ITERATIONS IS       23276 WORDS.
 ITER:  1   CCSD    CORR. ENERGY:  -0.0267978184   CONV.: -8.1760E-03
 ITER:  2   CCSD    CORR. ENERGY:  -0.0280714037   CONV.: -3.1676E-03
 ITER:  3   CCSD    CORR. ENERGY:  -0.0286620396   CONV.: -3.6303E-04
 ITER:  4   CCSD    CORR. ENERGY:  -0.0286867197   CONV.:  7.9321E-03
 ITER:  5   CCSD    CORR. ENERGY:  -0.0286878279   CONV.:  7.9081E-03
 ITER:  6   CCSD    CORR. ENERGY:  -0.0286890883   CONV.:  7.8887E-03
 ITER:  7   CCSD    CORR. ENERGY:  -0.0287952009   CONV.:  5.7400E-03
 ITER:  8   CCSD    CORR. ENERGY:  -0.0289903361   CONV.:  1.9089E-03
 ITER:  9   CCSD    CORR. ENERGY:  -0.0290872567   CONV.: -3.7756E-05
 ITER: 10   CCSD    CORR. ENERGY:  -0.0290876407   CONV.: -1.6180E-05
 ITER: 11   CCSD    CORR. ENERGY:  -0.0290873145   CONV.: -4.8289E-06
 ITER: 12   CCSD    CORR. ENERGY:  -0.0290870937   CONV.: -5.5077E-07
 ITER: 13   CCSD    CORR. ENERGY:  -0.0290870620   CONV.: -1.8760E-07
 ITER: 14   CCSD    CORR. ENERGY:  -0.0290870616   CONV.: -3.4485E-08
 ITER: 15   CCSD    CORR. ENERGY:  -0.0290870638   CONV.: -3.4485E-08

     THE    CCSD     ITERATIONS HAVE CONVERGED

    MBPT(2) CORRELATION ENERGY:  -0.0221878169
    CCSD    CORRELATION ENERGY:  -0.0290870638

 T1 DIAGNOSTIC        =     0.01180240
 NORM OF THE T1 VECTOR=     0.02360480
 NORM OF THE T2 VECTOR=     0.14804305

 THE FIVE LARGEST T1 AMPLITUDES ARE:
 T1 AMPLITUDE IS  0.019317 FOR I=   2 -> A=   3
 T1 AMPLITUDE IS  0.008939 FOR I=   2 -> A=  17
 T1 AMPLITUDE IS  0.007198 FOR I=   2 -> A=   6
 T1 AMPLITUDE IS -0.004329 FOR I=   2 -> A=   7
 T1 AMPLITUDE IS -0.004160 FOR I=   2 -> A=  10

 THE FIVE LARGEST SPIN-UNIQUE T2 AMPLITUDES ARE:
 T2 AMPLITUDE IS -0.044262 FOR I,J=   2   2 -> A,B=   6   6
 T2 AMPLITUDE IS -0.041611 FOR I,J=   2   2 -> A,B=  10  10
 T2 AMPLITUDE IS -0.034930 FOR I,J=   2   2 -> A,B=  17  17
 T2 AMPLITUDE IS  0.030153 FOR I,J=   2   2 -> A,B=   6  10
 T2 AMPLITUDE IS -0.028315 FOR I,J=   2   2 -> A,B=  11  11
 PRINTED T2(I-ALPHA,J-BETA -> A-ALPHA,B-BETA) VALUES
 EQUAL   T2(J-ALPHA,I-BETA -> B-ALPHA,A-BETA) AMPLITUDES.

 ....... DONE WITH CC AMPLITUDE ITERATIONS .......
 STEP CPU TIME =     0.04 TOTAL CPU TIME =        0.1 (    0.0 MIN)
 TOTAL WALL CLOCK TIME=        0.4 SECONDS, CPU UTILIZATION IS  27.03%

 MEMORY REQUIRED FOR NONITERATIVE TRIPLES (T3WT2  ) IS        26136 WORDS.

                      SUMMARY OF RESULTS

      REFERENCE ENERGY:       -7.9619587514
        MBPT(2) ENERGY:       -7.9841465682   CORR.E=  -0.0221878169
        CCSD    ENERGY:       -7.9910458152   CORR.E=  -0.0290870638
        CCSD[T] ENERGY:       -7.9910630166   CORR.E=  -0.0291042652
        CCSD(T) ENERGY:       -7.9910623271   CORR.E=  -0.0291035757

 THE FOLLOWING METHOD AND ENERGY WILL BE CONSIDERED THE HIGHEST LEVEL RESULT:
 COUPLED-CLUSTER ENERGY E(   CCSD(T)) =       -7.9910623271

 ..... DONE WITH CC NON-ITERATIVE TRIPLES CORRECTIONS .....
 STEP CPU TIME =     0.00 TOTAL CPU TIME =        0.1 (    0.0 MIN)
 TOTAL WALL CLOCK TIME=        0.4 SECONDS, CPU UTILIZATION IS  27.03%
               580000  WORDS OF DYNAMIC MEMORY USED
 EXECUTION OF GAMESS TERMINATED NORMALLY Thu Jan 17 17:45:05 2019
 DDI: 263640 bytes (0.3 MB / 0 MWords) used by master data server.

 ----------------------------------------
 CPU timing information for all processes
 ========================================
 0: 0.80 + 0.38 = 0.118
 1: 0.01 + 0.02 = 0.04
 ----------------------------------------
 ddikick.x: exited gracefully.
unset echo
----- accounting info -----
Files used on the master node bach.ad64.riken.go.jp were:
-rw-------@ 1 maho  staff      258  1 17 17:45 .//LiH.631g/1.3/LiH.631g.CCSDT.1.3.gamess.F05
-rw-r--r--@ 1 maho  staff   180016  1 17 17:45 .//LiH.631g/1.3/LiH.631g.CCSDT.1.3.gamess.F08
-rw-r--r--@ 1 maho  staff   181704  1 17 17:45 .//LiH.631g/1.3/LiH.631g.CCSDT.1.3.gamess.F09
-rw-r--r--@ 1 maho  staff  1603280  1 17 17:45 .//LiH.631g/1.3/LiH.631g.CCSDT.1.3.gamess.F10
-rw-r--r--@ 1 maho  staff   388608  1 17 17:45 .//LiH.631g/1.3/LiH.631g.CCSDT.1.3.gamess.F70
-rw-r--r--@ 1 maho  staff   106560  1 17 17:45 .//LiH.631g/1.3/LiH.631g.CCSDT.1.3.gamess.F71
-rw-r--r--@ 1 maho  staff  2286144  1 17 17:45 .//LiH.631g/1.3/LiH.631g.CCSDT.1.3.gamess.F72
-rw-r--r--@ 1 maho  staff     1152  1 17 17:45 .//LiH.631g/1.3/LiH.631g.CCSDT.1.3.gamess.F73
-rw-r--r--@ 1 maho  staff    20736  1 17 17:45 .//LiH.631g/1.3/LiH.631g.CCSDT.1.3.gamess.F74
-rw-r--r--  1 maho  staff        0  1 17 17:45 .//LiH.631g/1.3/LiH.631g.CCSDT.1.3.gamess.F75
-rw-r--r--  1 maho  staff        0  1 17 17:45 .//LiH.631g/1.3/LiH.631g.CCSDT.1.3.gamess.F76
-rw-r--r--  1 maho  staff        0  1 17 17:45 .//LiH.631g/1.3/LiH.631g.CCSDT.1.3.gamess.F77
-rw-r--r--@ 1 maho  staff     7352  1 17 17:45 .//LiH.631g/1.3/LiH.631g.CCSDT.1.3.gamess.dat
-rw-------@ 1 maho  staff      258  1 17 17:45 .//LiH.631g/1.3/LiH.631g.CCSDT.1.3.gamess.inp
-rw-r--r--@ 1 maho  staff    34687  1 17 17:45 .//LiH.631g/1.3/LiH.631g.CCSDT.1.3.gamess.log
ls: No match.
ls: No match.
ls: No match.
2019年 1月17日 木曜日 17時45分08秒 JST
0.200u 0.163s 0:03.62 9.9%	0+0k 0+0io 0pf+0w
