----- GAMESS execution script 'rungms' -----
This job is running on host bach.ad64.riken.go.jp
under operating system Darwin at 2019年 1月17日 木曜日 17時48分17秒 JST
Available scratch disk space (Kbyte units) at beginning of the job is
Filesystem   1024-blocks       Used Available Capacity iused      ifree %iused  Mounted on
/dev/disk2s2  1953178672 1144751116 808427556    59%  984323 4293982956    0%   /Volumes/Users
GAMESS temporary binary files will be written to ./
GAMESS supplementary output files will be written to ./
Copying input file LiH.631g/2.7/LiH.631g.MP2.2.7.gamess.inp to your run's scratch directory...
cp LiH.631g/2.7/LiH.631g.MP2.2.7.gamess.inp .//LiH.631g/2.7/LiH.631g.MP2.2.7.gamess.F05
unset echo
/Volumes/Users/maho/bin/gamess//ddikick.x /Volumes/Users/maho/bin/gamess//gamess.00.x LiH.631g/2.7/LiH.631g.MP2.2.7.gamess -ddi 1 1 bach.ad64.riken.go.jp -scr ./

 Distributed Data Interface kickoff program.
 Initiating 1 compute processes on 1 nodes to run the following command:
 /Volumes/Users/maho/bin/gamess//gamess.00.x LiH.631g/2.7/LiH.631g.MP2.2.7.gamess 

          ******************************************************
          *         GAMESS VERSION = 18 AUG 2016 (R1)          *
          *             FROM IOWA STATE UNIVERSITY             *
          * M.W.SCHMIDT, K.K.BALDRIDGE, J.A.BOATZ, S.T.ELBERT, *
          *   M.S.GORDON, J.H.JENSEN, S.KOSEKI, N.MATSUNAGA,   *
          *          K.A.NGUYEN, S.J.SU, T.L.WINDUS,           *
          *       TOGETHER WITH M.DUPUIS, J.A.MONTGOMERY       *
          *         J.COMPUT.CHEM.  14, 1347-1363(1993)        *
          **************** 64 BIT APPLE VERSION ****************

  SINCE 1993, STUDENTS AND POSTDOCS WORKING AT IOWA STATE UNIVERSITY
  AND ALSO IN THEIR VARIOUS JOBS AFTER LEAVING ISU HAVE MADE IMPORTANT
  CONTRIBUTIONS TO THE CODE:
     IVANA ADAMOVIC, CHRISTINE AIKENS, YURI ALEXEEV, POOJA ARORA,
     ANDREY ASADCHEV, ROB BELL, PRADIPTA BANDYOPADHYAY, JONATHAN BENTZ,
     BRETT BODE, KURT BRORSEN, CALEB CARLIN, GALINA CHABAN, WEI CHEN,
     CHEOL HO CHOI, PAUL DAY, ALBERT DEFUSCO, NUWAN DESILVA, TIM DUDLEY,
     DMITRI FEDOROV, GRAHAM FLETCHER, MARK FREITAG, KURT GLAESEMANN,
     DAN KEMP, GRANT MERRILL, NORIYUKI MINEZAWA, JONATHAN MULLIN,
     TAKESHI NAGATA, SEAN NEDD, HEATHER NETZLOFF, BOSILJKA NJEGIC, RYAN OLSON,
     MIKE PAK, SPENCER PRUITT, LUKE ROSKOP, JIM SHOEMAKER, LYUDMILA SLIPCHENKO,
     TONY SMITH, SAROM SOK LEANG, JIE SONG, TETSUYA TAKETSUGU, SIMON WEBB,
     PENG XU, SOOHAENG YOO, FEDERICO ZAHARIEV

  ADDITIONAL CODE HAS BEEN PROVIDED BY COLLABORATORS IN OTHER GROUPS:
     IOWA STATE UNIVERSITY:
          JOE IVANIC, AARON WEST, LAIMUTIS BYTAUTAS, KLAUS RUEDENBERG
     UNIVERSITY OF TOKYO: KIMIHIKO HIRAO, TAKAHITO NAKAJIMA,
          TAKAO TSUNEDA, MUNEAKI KAMIYA, SUSUMU YANAGISAWA,
          KIYOSHI YAGI, MAHITO CHIBA, SEIKEN TOKURA, NAOAKI KAWAKAMI
     UNIVERSITY OF AARHUS: FRANK JENSEN
     UNIVERSITY OF IOWA: VISVALDAS KAIRYS, HUI LI
     NATIONAL INST. OF STANDARDS AND TECHNOLOGY: WALT STEVENS, DAVID GARMER
     UNIVERSITY OF PISA: BENEDETTA MENNUCCI, JACOPO TOMASI
     UNIVERSITY OF MEMPHIS: HENRY KURTZ, PRAKASHAN KORAMBATH
     UNIVERSITY OF ALBERTA: TOBY ZENG, MARIUSZ KLOBUKOWSKI
     UNIVERSITY OF NEW ENGLAND: MARK SPACKMAN
     MIE UNIVERSITY: HIROAKI UMEDA
     NAT. INST. OF ADVANCED INDUSTRIAL SCIENCE AND TECHNOLOGY: KAZUO KITAURA
     MICHIGAN STATE UNIVERSITY:
          KAROL KOWALSKI, MARTA WLOCH, JEFFREY GOUR, JESSE LUTZ,
          WEI LI, PIOTR PIECUCH
     UNIVERSITY OF SILESIA: MONIKA MUSIAL, STANISLAW KUCHARSKI
     FACULTES UNIVERSITAIRES NOTRE-DAME DE LA PAIX:
          OLIVIER QUINET, BENOIT CHAMPAGNE
     UNIVERSITY OF CALIFORNIA - SANTA BARBARA: BERNARD KIRTMAN
     INSTITUTE FOR MOLECULAR SCIENCE:
          KAZUYA ISHIMURA, MICHIO KATOUDA, AND SHIGERU NAGASE
     UNIVERSITY OF NOTRE DAME: ANNA POMOGAEVA, DAN CHIPMAN
     KYUSHU UNIVERSITY:
          HARUYUKI NAKANO,
          FENG LONG GU, JACEK KORCHOWIEC, MARCIN MAKOWSKI, AND YURIKO AOKI,
          HIROTOSHI MORI AND EISAKU MIYOSHI
     PENNSYLVANIA STATE UNIVERSITY:
          TZVETELIN IORDANOV, CHET SWALINA, JONATHAN SKONE,
          SHARON HAMMES-SCHIFFER
     WASEDA UNIVERSITY:
          MASATO KOBAYASHI, TOMOKO AKAMA, TSUGUKI TOUMA,
          TAKESHI YOSHIKAWA, YASUHIRO IKABATA, JUNJI SEINO,
          YUYA NAKAJIMA, HIROMI NAKAI
     NANJING UNIVERSITY: SHUHUA LI
     UNIVERSITY OF NEBRASKA:
          PEIFENG SU, DEJUN SI, NANDUN THELLAMUREGE, YALI WANG, HUI LI
     UNIVERSITY OF ZURICH: ROBERTO PEVERATI, KIM BALDRIDGE
     N. COPERNICUS UNIVERSITY AND JACKSON STATE UNIVERSITY:
          MARIA BARYSZ
     UNIVERSITY OF COPENHAGEN: Jimmy Kromann, CASPER STEINMANN
     TOKYO INSTITUTE OF TECHNOLOGY: HIROYA NAKATA
     NAGOYA UNIVERSITY: YOSHIO NISHIMOTO, STEPHAN IRLE
     MOSCOW STATE UNIVERSITY: VLADIMIR MIRONOV

 EXECUTION OF GAMESS BEGUN Thu Jan 17 17:48:17 2019

            ECHO OF THE FIRST FEW INPUT CARDS -
 INPUT CARD> $CONTRL MULT=1 SCFTYP=RHF MPLEVL=2 $END                                        
 INPUT CARD> $MP2 NACORE=0 NBCORE=0 $END                                                    
 INPUT CARD> $BASIS GBASIS=N31 NGAUSS=6 NDFUNC=1 NPFUNC=1 $END                              
 INPUT CARD> $GUESS GUESS=HUCKEL $END                                                       
 INPUT CARD> $DATA                                                                          
 INPUT CARD>LiH...HF...6-31G* basis                                                         
 INPUT CARD>Cnv   2                                                                         
 INPUT CARD>                                                                                
 INPUT CARD>Li    3.0    0.0      0.0     0.0                                               
 INPUT CARD>H     1.0    0.0      0.0     2.7                                               
 INPUT CARD> $END                                                                           
    1000000 WORDS OF MEMORY AVAILABLE

     BASIS OPTIONS
     -------------
     GBASIS=N31          IGAUSS=       6      POLAR=POPN31  
     NDFUNC=       1     NFFUNC=       0     DIFFSP=       F
     NPFUNC=       1      DIFFS=       F     BASNAM=        


     RUN TITLE
     ---------
 LiH...HF...6-31G* basis                                                         

 THE POINT GROUP OF THE MOLECULE IS CNV     
 THE ORDER OF THE PRINCIPAL AXIS IS     2

 ATOM      ATOMIC                      COORDINATES (BOHR)
           CHARGE         X                   Y                   Z
 LI          3.0     0.0000000000        0.0000000000        0.0000000000
 H           1.0     0.0000000000        0.0000000000        5.1022601668

          INTERNUCLEAR DISTANCES (ANGS.)
          ------------------------------

                1 LI         2 H     

   1 LI      0.0000000    2.7000000 *
   2 H       2.7000000 *  0.0000000  

  * ... LESS THAN  3.000


     ATOMIC BASIS SET
     ----------------
 THE CONTRACTED PRIMITIVE FUNCTIONS HAVE BEEN UNNORMALIZED
 THE CONTRACTED BASIS FUNCTIONS ARE NOW NORMALIZED TO UNITY

  SHELL TYPE  PRIMITIVE        EXPONENT          CONTRACTION COEFFICIENT(S)

 LI        

      1   S       1           642.4189150    0.002142607810
      1   S       2            96.7985153    0.016208871501
      1   S       3            22.0911212    0.077315572504
      1   S       4             6.2010702    0.245786052013
      1   S       5             1.9351177    0.470189004025
      1   S       6             0.6367358    0.345470845019

      2   L       7             2.3249184   -0.035091745735    0.008941508043
      2   L       8             0.6324304   -0.191232843103    0.141009464046
      2   L       9             0.0790534    1.083987794916    0.945363695309

      3   L      10             0.0359620    1.000000000000    1.000000000000

      4   D      11             0.2000000    1.000000000000

 H         

      5   S      12            18.7311370    0.033494604338
      5   S      13             2.8253944    0.234726953484
      5   S      14             0.6401217    0.813757326146

      6   S      15             0.1612778    1.000000000000

      7   P      16             1.1000000    1.000000000000

 TOTAL NUMBER OF BASIS SET SHELLS             =    7
 NUMBER OF CARTESIAN GAUSSIAN BASIS FUNCTIONS =   20
 NUMBER OF ELECTRONS                          =    4
 CHARGE OF MOLECULE                           =    0
 SPIN MULTIPLICITY                            =    1
 NUMBER OF OCCUPIED ORBITALS (ALPHA)          =    2
 NUMBER OF OCCUPIED ORBITALS (BETA )          =    2
 TOTAL NUMBER OF ATOMS                        =    2
 THE NUCLEAR REPULSION ENERGY IS        0.5879747214

 THIS MOLECULE IS RECOGNIZED AS BEING LINEAR,
 ORBITAL LZ DEGENERACY TOLERANCE ETOLLZ= 1.00E-06

     $CONTRL OPTIONS
     ---------------
 SCFTYP=RHF          RUNTYP=ENERGY       EXETYP=RUN     
 MPLEVL=       2     CITYP =NONE         CCTYP =NONE         VBTYP =NONE    
 DFTTYP=NONE         TDDFT =NONE    
 MULT  =       1     ICHARG=       0     NZVAR =       0     COORD =UNIQUE  
 PP    =NONE         RELWFN=NONE         LOCAL =NONE         NUMGRD=       F
 ISPHER=      -1     NOSYM =       0     MAXIT =      30     UNITS =ANGS    
 PLTORB=       F     MOLPLT=       F     AIMPAC=       F     FRIEND=        
 NPRINT=       7     IREST =       0     GEOM  =INPUT   
 NORMF =       0     NORMP =       0     ITOL  =      20     ICUT  =       9
 INTTYP=BEST         GRDTYP=BEST         QMTTOL= 1.0E-06

     $SYSTEM OPTIONS
     ---------------
  REPLICATED MEMORY=     1000000 WORDS (ON EVERY NODE).
 DISTRIBUTED MEMDDI=           0 MILLION WORDS IN AGGREGATE,
 MEMDDI DISTRIBUTED OVER   1 PROCESSORS IS           0 WORDS/PROCESSOR.
 TOTAL MEMORY REQUESTED ON EACH PROCESSOR=     1000000 WORDS.
 TIMLIM=      525600.00 MINUTES, OR     365.0 DAYS.
 PARALL= F  BALTYP=  DLB     KDIAG=    0  COREFL= F
 MXSEQ2=     300 MXSEQ3=     150  mem10=         0

          ----------------
          PROPERTIES INPUT
          ----------------

     MOMENTS            FIELD           POTENTIAL          DENSITY
 IEMOM =       1   IEFLD =       0   IEPOT =       0   IEDEN =       0
 WHERE =COMASS     WHERE =NUCLEI     WHERE =NUCLEI     WHERE =NUCLEI  
 OUTPUT=BOTH       OUTPUT=BOTH       OUTPUT=BOTH       OUTPUT=BOTH    
 IEMINT=       0   IEFINT=       0                     IEDINT=       0
                                                       MORB  =       0
          EXTRAPOLATION IN EFFECT
          SOSCF IN EFFECT
 ORBITAL PRINTING OPTION: NPREO=     1    20     2     1

     -------------------------------
     INTEGRAL TRANSFORMATION OPTIONS
     -------------------------------
     NWORD  =            0
     CUTOFF = 1.0E-09     MPTRAN =       0
     DIRTRF =       F     AOINTS =DUP     

          ----------------------
          INTEGRAL INPUT OPTIONS
          ----------------------
 NOPK  =       1 NORDER=       0 SCHWRZ=       F

          -----------------------
          MP2 CONTROL INFORMATION
          -----------------------
          NACORE =        0  NBCORE =        0
          LMOMP2 =        F  AOINTS = DUP     
          METHOD =        2  NWORD  =               0
          MP2PRP =        F  OSPT   = NONE    
          CUTOFF = 1.00E-09  CPHFBS = BASISMO 
          CODE   = IMS     

          NUMBER OF CORE -A-  ORBITALS =     0
          NUMBER OF CORE -B-  ORBITALS =     0
          NUMBER OF OCC. -A-  ORBITALS =     2
          NUMBER OF OCC. -B-  ORBITALS =     2
          NUMBER OF MOLECULAR ORBITALS =    20
          NUMBER OF   BASIS  FUNCTIONS =    20


     ------------------------------------------
     THE POINT GROUP IS CNV, NAXIS= 2, ORDER= 4
     ------------------------------------------

     DIMENSIONS OF THE SYMMETRY SUBSPACES ARE
 A1  =   11     A2  =    1     B1  =    4     B2  =    4

 ..... DONE SETTING UP THE RUN .....
 STEP CPU TIME =     0.00 TOTAL CPU TIME =        0.0 (    0.0 MIN)
 TOTAL WALL CLOCK TIME=        0.0 SECONDS, CPU UTILIZATION IS   0.00%

          ********************
          1 ELECTRON INTEGRALS
          ********************
 ...... END OF ONE-ELECTRON INTEGRALS ......
 STEP CPU TIME =     0.00 TOTAL CPU TIME =        0.0 (    0.0 MIN)
 TOTAL WALL CLOCK TIME=        0.0 SECONDS, CPU UTILIZATION IS   0.00%

          -------------
          GUESS OPTIONS
          -------------
          GUESS =HUCKEL            NORB  =       0          NORDER=       0
          MIX   =       F          PRTMO =       F          PUNMO =       F
          TOLZ  = 1.0E-08          TOLE  = 1.0E-05
          SYMDEN=       F          PURIFY=       F

 INITIAL GUESS ORBITALS GENERATED BY HUCKEL   ROUTINE.
 HUCKEL GUESS REQUIRES      4469 WORDS.

 SYMMETRIES FOR INITIAL GUESS ORBITALS FOLLOW.   BOTH SET(S).
     2 ORBITALS ARE OCCUPIED (    1 CORE ORBITALS).
     2=A1       3=A1       4=A1       5=A1       6=A1       7=A1       8=A1  
     9=A1      10=A1      11=A1      12=A2  
 ...... END OF INITIAL ORBITAL SELECTION ......
 STEP CPU TIME =     0.00 TOTAL CPU TIME =        0.0 (    0.0 MIN)
 TOTAL WALL CLOCK TIME=        0.0 SECONDS, CPU UTILIZATION IS   0.00%

                    ----------------------
                    AO INTEGRAL TECHNOLOGY
                    ----------------------
     S,P,L SHELL ROTATED AXIS INTEGRALS, REPROGRAMMED BY
        KAZUYA ISHIMURA (IMS) AND JOSE SIERRA (SYNSTAR).
     S,P,D,L SHELL ROTATED AXIS INTEGRALS PROGRAMMED BY
        KAZUYA ISHIMURA (INSTITUTE FOR MOLECULAR SCIENCE).
     S,P,D,F,G SHELL TO TOTAL QUARTET ANGULAR MOMENTUM SUM 5,
        ERIC PROGRAM BY GRAHAM FLETCHER (ELORET AND NASA ADVANCED
        SUPERCOMPUTING DIVISION, AMES RESEARCH CENTER).
     S,P,D,F,G,L SHELL GENERAL RYS QUADRATURE PROGRAMMED BY
        MICHEL DUPUIS (PACIFIC NORTHWEST NATIONAL LABORATORY).

          --------------------
          2 ELECTRON INTEGRALS
          --------------------

 THE -PK- OPTION IS OFF, THE INTEGRALS ARE NOT IN SUPERMATRIX FORM.
 STORING   15000 INTEGRALS/RECORD ON DISK, USING 12 BYTES/INTEGRAL.
 TWO ELECTRON INTEGRAL EVALUATION REQUIRES   90424 WORDS OF MEMORY.
 II,JST,KST,LST =  1  1  1  1 NREC =         1 INTLOC =    1
 II,JST,KST,LST =  2  1  1  1 NREC =         1 INTLOC =    2
 II,JST,KST,LST =  3  1  1  1 NREC =         1 INTLOC =   34
 II,JST,KST,LST =  4  1  1  1 NREC =         1 INTLOC =  214
 II,JST,KST,LST =  5  1  1  1 NREC =         1 INTLOC = 1189
 II,JST,KST,LST =  6  1  1  1 NREC =         1 INTLOC = 1867
 II,JST,KST,LST =  7  1  1  1 NREC =         1 INTLOC = 2713
 TOTAL NUMBER OF NONZERO TWO-ELECTRON INTEGRALS =                5594
          1 INTEGRAL RECORDS WERE STORED ON DISK FILE  8.
  ...... END OF TWO-ELECTRON INTEGRALS .....
 STEP CPU TIME =     0.02 TOTAL CPU TIME =        0.0 (    0.0 MIN)
 TOTAL WALL CLOCK TIME=        0.0 SECONDS, CPU UTILIZATION IS  66.67%

          --------------------------
                 RHF SCF CALCULATION
          --------------------------

     NUCLEAR ENERGY =         0.5879747214
     MAXIT =   30     NPUNCH=    2
     EXTRAP=T  DAMP=F  SHIFT=F  RSTRCT=F  DIIS=F  DEM=F  SOSCF=T
     DENSITY MATRIX CONV=  1.00E-06
     SOSCF WILL OPTIMIZE      36 ORBITAL ROTATIONS, SOGTOL=   0.250
     MEMORY REQUIRED FOR RHF ITERS=     33224 WORDS.

 ITER EX DEM     TOTAL ENERGY        E CHANGE  DENSITY CHANGE     ORB. GRAD
   1  0  0       -7.6962018480    -7.6962018480   0.580790757   0.000000000
          ---------------START SECOND ORDER SCF---------------
   2  1  0       -7.8980569432    -0.2018550953   0.447570803   0.053099205
   3  2  0       -7.9178303574    -0.0197734142   0.134759398   0.022099147
   4  3  0       -7.9261233313    -0.0082929739   0.098740804   0.008045030
   5  4  0       -7.9271802950    -0.0010569637   0.042714450   0.004201952
   6  5  0       -7.9274823131    -0.0003020180   0.002942934   0.000562750
   7  6  0       -7.9274883468    -0.0000060337   0.000211484   0.000036798
   8  7  0       -7.9274883795    -0.0000000327   0.000014162   0.000007035
   9  8  0       -7.9274883796    -0.0000000002   0.000001578   0.000001274
  10  9  0       -7.9274883796    -0.0000000000   0.000000272   0.000000039

          -----------------
          DENSITY CONVERGED
          -----------------
     TIME TO FORM FOCK OPERATORS=       0.0 SECONDS (       0.0 SEC/ITER)
     TIME TO SOLVE SCF EQUATIONS=       0.0 SECONDS (       0.0 SEC/ITER)

 FINAL RHF ENERGY IS       -7.9274883796 AFTER  10 ITERATIONS

 LZ VALUE ANALYSIS FOR THE MOS
 ----------------------------------------
 MO     1 (    1) HAS LZ(WEIGHT)= 0.00(100.0%) 
 MO     2 (    2) HAS LZ(WEIGHT)= 0.00(100.0%) 
 MO     3 (    3) HAS LZ(WEIGHT)= 0.00(100.0%) 
 MO     4 (    4) HAS LZ(WEIGHT)=-1.00( 50.0%)  1.00( 50.0%) 
 MO     5 (    4) HAS LZ(WEIGHT)=-1.00( 50.0%)  1.00( 50.0%) 
 MO     6 (    5) HAS LZ(WEIGHT)= 0.00(100.0%) 
 MO     7 (    6) HAS LZ(WEIGHT)= 0.00(100.0%) 
 MO     8 (    7) HAS LZ(WEIGHT)=-1.00( 50.0%)  1.00( 50.0%) 
 MO     9 (    7) HAS LZ(WEIGHT)=-1.00( 50.0%)  1.00( 50.0%) 
 MO    10 (    8) HAS LZ(WEIGHT)= 0.00(100.0%) 
 MO    11 (    9) HAS LZ(WEIGHT)=-2.00( 50.0%)  2.00( 50.0%) 
 MO    12 (    9) HAS LZ(WEIGHT)=-2.00( 50.0%)  2.00( 50.0%) 
 MO    13 (   10) HAS LZ(WEIGHT)=-1.00( 50.0%)  1.00( 50.0%) 
 MO    14 (   10) HAS LZ(WEIGHT)=-1.00( 50.0%)  1.00( 50.0%) 
 MO    15 (   11) HAS LZ(WEIGHT)= 0.00(100.0%) 
 MO    16 (   12) HAS LZ(WEIGHT)= 0.00(100.0%) 
 MO    17 (   13) HAS LZ(WEIGHT)= 0.00(100.0%) 
 MO    18 (   14) HAS LZ(WEIGHT)=-1.00( 50.0%)  1.00( 50.0%) 
 MO    19 (   14) HAS LZ(WEIGHT)=-1.00( 50.0%)  1.00( 50.0%) 
 MO    20 (   15) HAS LZ(WEIGHT)= 0.00(100.0%) 

          ------------
          EIGENVECTORS
          ------------

                      1          2          3          4          5
                   -2.5315    -0.2417    -0.0174     0.0441     0.0441
                     A1         A1         A1         B1         B2  
    1  LI 1  S    0.998754  -0.085328  -0.153426  -0.000000  -0.000000
    2  LI 1  S   -0.011627   0.034360  -0.140920  -0.000000  -0.000000
    3  LI 1  X    0.000000  -0.000000  -0.000000   0.122667  -0.000000
    4  LI 1  Y    0.000000  -0.000000  -0.000000  -0.000000   0.122667
    5  LI 1  Z   -0.005589   0.107969  -0.159568  -0.000000  -0.000000
    6  LI 1  S    0.001402   0.341008   0.826454  -0.000000  -0.000000
    7  LI 1  X    0.000000  -0.000000  -0.000000   0.898183  -0.000000
    8  LI 1  Y    0.000000  -0.000000  -0.000000  -0.000000   0.898183
    9  LI 1  Z    0.003499   0.140356  -0.453771  -0.000000  -0.000000
   10  LI 1 XX    0.008898   0.012627   0.050672  -0.000000  -0.000000
   11  LI 1 YY    0.008898   0.012627   0.050672  -0.000000  -0.000000
   12  LI 1 ZZ    0.008434   0.043217   0.059957  -0.000000  -0.000000
   13  LI 1 XY    0.000000  -0.000000  -0.000000  -0.000000  -0.000000
   14  LI 1 XZ    0.000000  -0.000000  -0.000000  -0.036654  -0.000000
   15  LI 1 YZ    0.000000  -0.000000  -0.000000  -0.000000  -0.036654
   16  H  2  S    0.000117   0.253413  -0.071072  -0.000000  -0.000000
   17  H  2  S    0.000718   0.502334  -0.109886  -0.000000  -0.000000
   18  H  2  X    0.000000  -0.000000  -0.000000   0.002311  -0.000000
   19  H  2  Y    0.000000  -0.000000  -0.000000  -0.000000   0.002311
   20  H  2  Z   -0.000108  -0.003522  -0.001889  -0.000000  -0.000000

                      6          7          8          9         10
                    0.1306     0.1769     0.1930     0.1930     0.2228
                     A1         A1         B1         B2         A1  
    1  LI 1  S   -0.073791   0.092369   0.000000   0.000000   0.046892
    2  LI 1  S    0.880797   2.276320   0.000000   0.000000   2.225845
    3  LI 1  X   -0.000000   0.000000   1.665288   0.000000   0.000000
    4  LI 1  Y   -0.000000   0.000000   0.000000   1.665288   0.000000
    5  LI 1  Z   -0.404413  -1.049551   0.000000   0.000000   1.214712
    6  LI 1  S   -0.153498  -1.984606   0.000000   0.000000  -1.678355
    7  LI 1  X   -0.000000   0.000000  -1.411409   0.000000   0.000000
    8  LI 1  Y   -0.000000   0.000000   0.000000  -1.411409   0.000000
    9  LI 1  Z    1.217196   0.473063   0.000000   0.000000  -1.091164
   10  LI 1 XX   -0.035966  -0.264569   0.000000   0.000000  -0.170488
   11  LI 1 YY   -0.035966  -0.264569   0.000000   0.000000  -0.170488
   12  LI 1 ZZ   -0.132534  -0.123599   0.000000   0.000000  -0.271470
   13  LI 1 XY   -0.000000   0.000000   0.000000   0.000000   0.000000
   14  LI 1 XZ   -0.000000   0.000000  -0.071313   0.000000   0.000000
   15  LI 1 YZ   -0.000000   0.000000   0.000000  -0.071313   0.000000
   16  H  2  S   -0.117850   0.063524   0.000000   0.000000  -0.028463
   17  H  2  S   -0.725941   0.418341   0.000000   0.000000   0.058291
   18  H  2  X   -0.000000   0.000000   0.000307   0.000000   0.000000
   19  H  2  Y   -0.000000   0.000000   0.000000   0.000307   0.000000
   20  H  2  Z   -0.002284   0.000313   0.000000   0.000000  -0.007177

                     11         12         13         14         15
                    0.5373     0.5373     0.5488     0.5488     0.5986
                     A2         A1         B2         B1         A1  
    1  LI 1  S    0.000000   0.000000  -0.000000  -0.000000  -0.025921
    2  LI 1  S    0.000000   0.000000  -0.000000  -0.000000  -0.211712
    3  LI 1  X    0.000000   0.000000  -0.000000   0.123577  -0.000000
    4  LI 1  Y    0.000000   0.000000   0.123577  -0.000000  -0.000000
    5  LI 1  Z    0.000000   0.000000  -0.000000  -0.000000   0.159712
    6  LI 1  S    0.000000   0.000000  -0.000000  -0.000000   0.266686
    7  LI 1  X    0.000000   0.000000  -0.000000  -0.068348  -0.000000
    8  LI 1  Y    0.000000   0.000000  -0.068348  -0.000000  -0.000000
    9  LI 1  Z    0.000000   0.000000  -0.000000  -0.000000   0.116812
   10  LI 1 XX    0.000000   0.866025  -0.000000  -0.000000  -0.469997
   11  LI 1 YY    0.000000  -0.866025  -0.000000  -0.000000  -0.469997
   12  LI 1 ZZ    0.000000   0.000000  -0.000000  -0.000000   1.062709
   13  LI 1 XY    1.000000   0.000000  -0.000000  -0.000000  -0.000000
   14  LI 1 XZ    0.000000   0.000000  -0.000000   0.996427  -0.000000
   15  LI 1 YZ    0.000000   0.000000   0.996427  -0.000000  -0.000000
   16  H  2  S    0.000000   0.000000  -0.000000  -0.000000  -0.096381
   17  H  2  S    0.000000   0.000000  -0.000000  -0.000000  -0.355134
   18  H  2  X    0.000000   0.000000  -0.000000   0.013054  -0.000000
   19  H  2  Y    0.000000   0.000000   0.013054  -0.000000  -0.000000
   20  H  2  Z    0.000000   0.000000  -0.000000  -0.000000  -0.035348

                     16         17         18         19         20
                    1.1733     1.2769     2.4610     2.4610     2.5178
                     A1         A1         B1         B2         A1  
    1  LI 1  S    0.091989   0.069252  -0.000000  -0.000000  -0.008677
    2  LI 1  S    8.766958   3.433596  -0.000000  -0.000000   0.190887
    3  LI 1  X    0.000000  -0.000000  -0.005275  -0.000000   0.000000
    4  LI 1  Y    0.000000  -0.000000  -0.000000  -0.005275   0.000000
    5  LI 1  Z    0.027006  -0.053158  -0.000000  -0.000000   0.164583
    6  LI 1  S   -2.566572  -1.364135  -0.000000  -0.000000  -0.027789
    7  LI 1  X    0.000000  -0.000000  -0.027779  -0.000000   0.000000
    8  LI 1  Y    0.000000  -0.000000  -0.000000  -0.027779   0.000000
    9  LI 1  Z    0.128019  -0.270360  -0.000000  -0.000000  -0.044205
   10  LI 1 XX   -2.986224  -1.016729  -0.000000  -0.000000  -0.111516
   11  LI 1 YY   -2.986224  -1.016729  -0.000000  -0.000000  -0.111516
   12  LI 1 ZZ   -2.846828  -1.289696  -0.000000  -0.000000   0.105669
   13  LI 1 XY    0.000000  -0.000000  -0.000000  -0.000000   0.000000
   14  LI 1 XZ    0.000000  -0.000000  -0.033763  -0.000000   0.000000
   15  LI 1 YZ    0.000000  -0.000000  -0.000000  -0.033763   0.000000
   16  H  2  S    0.411707  -1.290881  -0.000000  -0.000000   0.077768
   17  H  2  S   -0.527862   1.306840  -0.000000  -0.000000  -0.159061
   18  H  2  X    0.000000  -0.000000   1.000561  -0.000000   0.000000
   19  H  2  Y    0.000000  -0.000000  -0.000000   1.000561   0.000000
   20  H  2  Z   -0.000960   0.035440  -0.000000  -0.000000   1.009099
 ...... END OF RHF CALCULATION ......
 STEP CPU TIME =     0.01 TOTAL CPU TIME =        0.0 (    0.0 MIN)
 TOTAL WALL CLOCK TIME=        0.2 SECONDS, CPU UTILIZATION IS  17.65%

     ----------------------------------------------------------------
     PROPERTY VALUES FOR THE RHF   SELF-CONSISTENT FIELD WAVEFUNCTION
     ----------------------------------------------------------------

          -----------------
          ENERGY COMPONENTS
          -----------------

         WAVEFUNCTION NORMALIZATION =       1.0000000000

                ONE ELECTRON ENERGY =     -11.4845090226
                TWO ELECTRON ENERGY =       2.9690459216
           NUCLEAR REPULSION ENERGY =       0.5879747214
                                      ------------------
                       TOTAL ENERGY =      -7.9274883796

 ELECTRON-ELECTRON POTENTIAL ENERGY =       2.9690459216
  NUCLEUS-ELECTRON POTENTIAL ENERGY =     -19.2874079080
   NUCLEUS-NUCLEUS POTENTIAL ENERGY =       0.5879747214
                                      ------------------
             TOTAL POTENTIAL ENERGY =     -15.7303872650
               TOTAL KINETIC ENERGY =       7.8028988853
                 VIRIAL RATIO (V/T) =       2.0159670779

  ...... PI ENERGY ANALYSIS ......

 ENERGY ANALYSIS:
            FOCK ENERGY=     -5.5464172017
          BARE H ENERGY=    -11.4845090226
     ELECTRONIC ENERGY =     -8.5154631122
         KINETIC ENERGY=      7.8028988853
          N-N REPULSION=      0.5879747214
           TOTAL ENERGY=     -7.9274883908
        SIGMA PART(1+2)=     -8.5154631122
               (K,V1,2)=      7.8028988853    -19.2874079080      2.9690459105
           PI PART(1+2)=      0.0000000000
               (K,V1,2)=      0.0000000000      0.0000000000      0.0000000000
  SIGMA SKELETON, ERROR=     -7.9274883908      0.0000000000
             MIXED PART= 0.00000E+00 0.00000E+00 0.00000E+00 0.00000E+00
 ...... END OF PI ENERGY ANALYSIS ......

          ---------------------------------------
          MULLIKEN AND LOWDIN POPULATION ANALYSES
          ---------------------------------------

     ATOMIC MULLIKEN POPULATION IN EACH MOLECULAR ORBITAL

                      1          2

                  2.000000   2.000000

    1             1.999979   0.738924
    2             0.000021   1.261076

               ----- POPULATIONS IN EACH AO -----
                             MULLIKEN      LOWDIN
              1  LI 1  S      1.99799     1.97941
              2  LI 1  S      0.03229     0.12609
              3  LI 1  X      0.00000     0.00000
              4  LI 1  Y      0.00000     0.00000
              5  LI 1  Z      0.10295     0.12754
              6  LI 1  S      0.39876     0.28477
              7  LI 1  X      0.00000     0.00000
              8  LI 1  Y      0.00000     0.00000
              9  LI 1  Z      0.14867     0.17370
             10  LI 1 XX      0.00905     0.02286
             11  LI 1 YY      0.00905     0.02286
             12  LI 1 ZZ      0.04014     0.07769
             13  LI 1 XY      0.00000     0.00000
             14  LI 1 XZ      0.00000     0.00000
             15  LI 1 YZ      0.00000     0.00000
             16  H  2  S      0.34259     0.38099
             17  H  2  S      0.91830     0.80391
             18  H  2  X      0.00000     0.00000
             19  H  2  Y      0.00000     0.00000
             20  H  2  Z      0.00021     0.00018

          ----- MULLIKEN ATOMIC OVERLAP POPULATIONS -----
          (OFF-DIAGONAL ELEMENTS NEED TO BE MULTIPLIED BY 2)

             1           2

    1    2.4461443
    2    0.2927587   0.9683383

          TOTAL MULLIKEN AND LOWDIN ATOMIC POPULATIONS
       ATOM         MULL.POP.    CHARGE          LOW.POP.     CHARGE
    1 LI            2.738903    0.261097         2.814924    0.185076
    2 H             1.261097   -0.261097         1.185076   -0.185076

          -------------------------------
          BOND ORDER AND VALENCE ANALYSIS     BOND ORDER THRESHOLD=0.050
          -------------------------------

                   BOND                       BOND                       BOND
  ATOM PAIR DIST  ORDER      ATOM PAIR DIST  ORDER      ATOM PAIR DIST  ORDER
    1   2  2.700  0.932

                       TOTAL       BONDED        FREE
      ATOM            VALENCE     VALENCE     VALENCE
    1 LI                0.932       0.932       0.000
    2 H                 0.932       0.932       0.000

          ---------------------
          ELECTROSTATIC MOMENTS
          ---------------------

 POINT   1           X           Y           Z (BOHR)    CHARGE
                 0.000000    0.000000    0.640865        0.00 (A.U.)
         DX          DY          DZ         /D/  (DEBYE)
     0.000000    0.000000   -8.455009    8.455009
 ...... END OF PROPERTY EVALUATION ......
 STEP CPU TIME =     0.01 TOTAL CPU TIME =        0.0 (    0.0 MIN)
 TOTAL WALL CLOCK TIME=        0.2 SECONDS, CPU UTILIZATION IS  23.53%

 --------------------------   -----------------------------
 RHF-MP2 ENERGY CALCULATION   PROGRAM WRITTEN BY K.ISHIMURA
 --------------------------   -----------------------------
 NUMBER OF OCCUPIED ORBITALS            =    2
 NUMBER OF CORRELATED OCCUPIED ORBITALS =    2
 NUMBER OF VIRTUAL ORBITALS             =   18
 NUMBER OF BASIS FUNCTIONS              =   20
 NUMBER OF BASIS SHELLS                 =    7
 AO-TRANSFORMED INTEGRAL THRESHOLD      = 1.00E-09
 HALF-TRANSFORMED INTEGRAL THRESHOLD    = 1.30E-11
 TOTAL DISK REQUIRED (ALL PROCESSORS)=              0 MBYTES
                  DISK SPACE PER CORE=              0 MBYTES, USING P=    1
 MEMORY REQUIRED FOR TRANSFORMATION OF 1ST THREE INDICES=       12422
 MEMORY REQUIRED FOR    4TH INDEX TRANSF. AND MP2 ENERGY=        3084
 BEGINNING MP2 INTEGRAL TRANSFORMATION...
 BEGINNING    1ST SHELL LOOP...

 RESULTS OF MOLLER-PLESSET 2ND ORDER CORRECTION ARE
               E(0)=        -7.9274883796
               E(1)=         0.0
               E(2)=        -0.0223542914
             E(MP2)=        -7.9498426710
 SPIN-COMPONENT-SCALED MP2 RESULTS ARE
              E(2S)=        -0.0223368202
              E(2T)=        -0.0000174712
             E(2ST)=        -0.0268100080 = 6/5 * E(2S) + 1/3 * E(2T)
            SCS-MP2=        -7.9542983876
 ..... DONE WITH MP2 ENERGY .....
 STEP CPU TIME =     0.01 TOTAL CPU TIME =        0.0 (    0.0 MIN)
 TOTAL WALL CLOCK TIME=        0.3 SECONDS, CPU UTILIZATION IS  17.24%
               580000  WORDS OF DYNAMIC MEMORY USED
 EXECUTION OF GAMESS TERMINATED NORMALLY Thu Jan 17 17:48:17 2019
 DDI: 263640 bytes (0.3 MB / 0 MWords) used by master data server.

 ----------------------------------------
 CPU timing information for all processes
 ========================================
 0: 0.41 + 0.15 = 0.57
 1: 0.01 + 0.02 = 0.04
 ----------------------------------------
 ddikick.x: exited gracefully.
unset echo
----- accounting info -----
Files used on the master node bach.ad64.riken.go.jp were:
-rw-------  1 maho  staff      261  1 17 17:48 .//LiH.631g/2.7/LiH.631g.MP2.2.7.gamess.F05
-rw-r--r--  1 maho  staff   180016  1 17 17:48 .//LiH.631g/2.7/LiH.631g.MP2.2.7.gamess.F08
-rw-r--r--  1 maho  staff  1537840  1 17 17:48 .//LiH.631g/2.7/LiH.631g.MP2.2.7.gamess.F10
-rw-r--r--  1 maho  staff     7352  1 17 17:48 .//LiH.631g/2.7/LiH.631g.MP2.2.7.gamess.dat
-rw-------  1 maho  staff      261  1 17 17:48 .//LiH.631g/2.7/LiH.631g.MP2.2.7.gamess.inp
-rw-r--r--  1 maho  staff    31273  1 17 17:48 .//LiH.631g/2.7/LiH.631g.MP2.2.7.gamess.log
ls: No match.
ls: No match.
ls: No match.
2019年 1月17日 木曜日 17時48分20秒 JST
0.154u 0.119s 0:03.53 7.3%	0+0k 0+0io 0pf+0w
