----- GAMESS execution script 'rungms' -----
This job is running on host bach.ad64.riken.go.jp
under operating system Darwin at 2019年 1月17日 木曜日 17時48分57秒 JST
Available scratch disk space (Kbyte units) at beginning of the job is
Filesystem   1024-blocks       Used Available Capacity iused      ifree %iused  Mounted on
/dev/disk2s2  1953178672 1144751540 808427132    59%  984359 4293982920    0%   /Volumes/Users
GAMESS temporary binary files will be written to ./
GAMESS supplementary output files will be written to ./
Copying input file LiH.631g/3.0/LiH.631g.Hartree-Fock.3.0.gamess.inp to your run's scratch directory...
cp LiH.631g/3.0/LiH.631g.Hartree-Fock.3.0.gamess.inp .//LiH.631g/3.0/LiH.631g.Hartree-Fock.3.0.gamess.F05
unset echo
/Volumes/Users/maho/bin/gamess//ddikick.x /Volumes/Users/maho/bin/gamess//gamess.00.x LiH.631g/3.0/LiH.631g.Hartree-Fock.3.0.gamess -ddi 1 1 bach.ad64.riken.go.jp -scr ./

 Distributed Data Interface kickoff program.
 Initiating 1 compute processes on 1 nodes to run the following command:
 /Volumes/Users/maho/bin/gamess//gamess.00.x LiH.631g/3.0/LiH.631g.Hartree-Fock.3.0.gamess 

          ******************************************************
          *         GAMESS VERSION = 18 AUG 2016 (R1)          *
          *             FROM IOWA STATE UNIVERSITY             *
          * M.W.SCHMIDT, K.K.BALDRIDGE, J.A.BOATZ, S.T.ELBERT, *
          *   M.S.GORDON, J.H.JENSEN, S.KOSEKI, N.MATSUNAGA,   *
          *          K.A.NGUYEN, S.J.SU, T.L.WINDUS,           *
          *       TOGETHER WITH M.DUPUIS, J.A.MONTGOMERY       *
          *         J.COMPUT.CHEM.  14, 1347-1363(1993)        *
          **************** 64 BIT APPLE VERSION ****************

  SINCE 1993, STUDENTS AND POSTDOCS WORKING AT IOWA STATE UNIVERSITY
  AND ALSO IN THEIR VARIOUS JOBS AFTER LEAVING ISU HAVE MADE IMPORTANT
  CONTRIBUTIONS TO THE CODE:
     IVANA ADAMOVIC, CHRISTINE AIKENS, YURI ALEXEEV, POOJA ARORA,
     ANDREY ASADCHEV, ROB BELL, PRADIPTA BANDYOPADHYAY, JONATHAN BENTZ,
     BRETT BODE, KURT BRORSEN, CALEB CARLIN, GALINA CHABAN, WEI CHEN,
     CHEOL HO CHOI, PAUL DAY, ALBERT DEFUSCO, NUWAN DESILVA, TIM DUDLEY,
     DMITRI FEDOROV, GRAHAM FLETCHER, MARK FREITAG, KURT GLAESEMANN,
     DAN KEMP, GRANT MERRILL, NORIYUKI MINEZAWA, JONATHAN MULLIN,
     TAKESHI NAGATA, SEAN NEDD, HEATHER NETZLOFF, BOSILJKA NJEGIC, RYAN OLSON,
     MIKE PAK, SPENCER PRUITT, LUKE ROSKOP, JIM SHOEMAKER, LYUDMILA SLIPCHENKO,
     TONY SMITH, SAROM SOK LEANG, JIE SONG, TETSUYA TAKETSUGU, SIMON WEBB,
     PENG XU, SOOHAENG YOO, FEDERICO ZAHARIEV

  ADDITIONAL CODE HAS BEEN PROVIDED BY COLLABORATORS IN OTHER GROUPS:
     IOWA STATE UNIVERSITY:
          JOE IVANIC, AARON WEST, LAIMUTIS BYTAUTAS, KLAUS RUEDENBERG
     UNIVERSITY OF TOKYO: KIMIHIKO HIRAO, TAKAHITO NAKAJIMA,
          TAKAO TSUNEDA, MUNEAKI KAMIYA, SUSUMU YANAGISAWA,
          KIYOSHI YAGI, MAHITO CHIBA, SEIKEN TOKURA, NAOAKI KAWAKAMI
     UNIVERSITY OF AARHUS: FRANK JENSEN
     UNIVERSITY OF IOWA: VISVALDAS KAIRYS, HUI LI
     NATIONAL INST. OF STANDARDS AND TECHNOLOGY: WALT STEVENS, DAVID GARMER
     UNIVERSITY OF PISA: BENEDETTA MENNUCCI, JACOPO TOMASI
     UNIVERSITY OF MEMPHIS: HENRY KURTZ, PRAKASHAN KORAMBATH
     UNIVERSITY OF ALBERTA: TOBY ZENG, MARIUSZ KLOBUKOWSKI
     UNIVERSITY OF NEW ENGLAND: MARK SPACKMAN
     MIE UNIVERSITY: HIROAKI UMEDA
     NAT. INST. OF ADVANCED INDUSTRIAL SCIENCE AND TECHNOLOGY: KAZUO KITAURA
     MICHIGAN STATE UNIVERSITY:
          KAROL KOWALSKI, MARTA WLOCH, JEFFREY GOUR, JESSE LUTZ,
          WEI LI, PIOTR PIECUCH
     UNIVERSITY OF SILESIA: MONIKA MUSIAL, STANISLAW KUCHARSKI
     FACULTES UNIVERSITAIRES NOTRE-DAME DE LA PAIX:
          OLIVIER QUINET, BENOIT CHAMPAGNE
     UNIVERSITY OF CALIFORNIA - SANTA BARBARA: BERNARD KIRTMAN
     INSTITUTE FOR MOLECULAR SCIENCE:
          KAZUYA ISHIMURA, MICHIO KATOUDA, AND SHIGERU NAGASE
     UNIVERSITY OF NOTRE DAME: ANNA POMOGAEVA, DAN CHIPMAN
     KYUSHU UNIVERSITY:
          HARUYUKI NAKANO,
          FENG LONG GU, JACEK KORCHOWIEC, MARCIN MAKOWSKI, AND YURIKO AOKI,
          HIROTOSHI MORI AND EISAKU MIYOSHI
     PENNSYLVANIA STATE UNIVERSITY:
          TZVETELIN IORDANOV, CHET SWALINA, JONATHAN SKONE,
          SHARON HAMMES-SCHIFFER
     WASEDA UNIVERSITY:
          MASATO KOBAYASHI, TOMOKO AKAMA, TSUGUKI TOUMA,
          TAKESHI YOSHIKAWA, YASUHIRO IKABATA, JUNJI SEINO,
          YUYA NAKAJIMA, HIROMI NAKAI
     NANJING UNIVERSITY: SHUHUA LI
     UNIVERSITY OF NEBRASKA:
          PEIFENG SU, DEJUN SI, NANDUN THELLAMUREGE, YALI WANG, HUI LI
     UNIVERSITY OF ZURICH: ROBERTO PEVERATI, KIM BALDRIDGE
     N. COPERNICUS UNIVERSITY AND JACKSON STATE UNIVERSITY:
          MARIA BARYSZ
     UNIVERSITY OF COPENHAGEN: Jimmy Kromann, CASPER STEINMANN
     TOKYO INSTITUTE OF TECHNOLOGY: HIROYA NAKATA
     NAGOYA UNIVERSITY: YOSHIO NISHIMOTO, STEPHAN IRLE
     MOSCOW STATE UNIVERSITY: VLADIMIR MIRONOV

 EXECUTION OF GAMESS BEGUN Thu Jan 17 17:48:57 2019

            ECHO OF THE FIRST FEW INPUT CARDS -
 INPUT CARD> $CONTRL MULT=1 SCFTYP=RHF $END                                                 
 INPUT CARD> $BASIS GBASIS=N31 NGAUSS=6 NDFUNC=1 NPFUNC=1 $END                              
 INPUT CARD> $GUESS GUESS=HUCKEL $END                                                       
 INPUT CARD> $DATA                                                                          
 INPUT CARD>LiH...HF...6-31G* basis                                                         
 INPUT CARD>Cnv   2                                                                         
 INPUT CARD>                                                                                
 INPUT CARD>Li    3.0    0.0      0.0     0.0                                               
 INPUT CARD>H     1.0    0.0      0.0     3.0                                               
 INPUT CARD> $END                                                                           
    1000000 WORDS OF MEMORY AVAILABLE

     BASIS OPTIONS
     -------------
     GBASIS=N31          IGAUSS=       6      POLAR=POPN31  
     NDFUNC=       1     NFFUNC=       0     DIFFSP=       F
     NPFUNC=       1      DIFFS=       F     BASNAM=        


     RUN TITLE
     ---------
 LiH...HF...6-31G* basis                                                         

 THE POINT GROUP OF THE MOLECULE IS CNV     
 THE ORDER OF THE PRINCIPAL AXIS IS     2

 ATOM      ATOMIC                      COORDINATES (BOHR)
           CHARGE         X                   Y                   Z
 LI          3.0     0.0000000000        0.0000000000        0.0000000000
 H           1.0     0.0000000000        0.0000000000        5.6691779632

          INTERNUCLEAR DISTANCES (ANGS.)
          ------------------------------

                1 LI         2 H     

   1 LI      0.0000000    3.0000000 *
   2 H       3.0000000 *  0.0000000  

  * ... LESS THAN  3.000


     ATOMIC BASIS SET
     ----------------
 THE CONTRACTED PRIMITIVE FUNCTIONS HAVE BEEN UNNORMALIZED
 THE CONTRACTED BASIS FUNCTIONS ARE NOW NORMALIZED TO UNITY

  SHELL TYPE  PRIMITIVE        EXPONENT          CONTRACTION COEFFICIENT(S)

 LI        

      1   S       1           642.4189150    0.002142607810
      1   S       2            96.7985153    0.016208871501
      1   S       3            22.0911212    0.077315572504
      1   S       4             6.2010702    0.245786052013
      1   S       5             1.9351177    0.470189004025
      1   S       6             0.6367358    0.345470845019

      2   L       7             2.3249184   -0.035091745735    0.008941508043
      2   L       8             0.6324304   -0.191232843103    0.141009464046
      2   L       9             0.0790534    1.083987794916    0.945363695309

      3   L      10             0.0359620    1.000000000000    1.000000000000

      4   D      11             0.2000000    1.000000000000

 H         

      5   S      12            18.7311370    0.033494604338
      5   S      13             2.8253944    0.234726953484
      5   S      14             0.6401217    0.813757326146

      6   S      15             0.1612778    1.000000000000

      7   P      16             1.1000000    1.000000000000

 TOTAL NUMBER OF BASIS SET SHELLS             =    7
 NUMBER OF CARTESIAN GAUSSIAN BASIS FUNCTIONS =   20
 NUMBER OF ELECTRONS                          =    4
 CHARGE OF MOLECULE                           =    0
 SPIN MULTIPLICITY                            =    1
 NUMBER OF OCCUPIED ORBITALS (ALPHA)          =    2
 NUMBER OF OCCUPIED ORBITALS (BETA )          =    2
 TOTAL NUMBER OF ATOMS                        =    2
 THE NUCLEAR REPULSION ENERGY IS        0.5291772492

 THIS MOLECULE IS RECOGNIZED AS BEING LINEAR,
 ORBITAL LZ DEGENERACY TOLERANCE ETOLLZ= 1.00E-06

     $CONTRL OPTIONS
     ---------------
 SCFTYP=RHF          RUNTYP=ENERGY       EXETYP=RUN     
 MPLEVL=       0     CITYP =NONE         CCTYP =NONE         VBTYP =NONE    
 DFTTYP=NONE         TDDFT =NONE    
 MULT  =       1     ICHARG=       0     NZVAR =       0     COORD =UNIQUE  
 PP    =NONE         RELWFN=NONE         LOCAL =NONE         NUMGRD=       F
 ISPHER=      -1     NOSYM =       0     MAXIT =      30     UNITS =ANGS    
 PLTORB=       F     MOLPLT=       F     AIMPAC=       F     FRIEND=        
 NPRINT=       7     IREST =       0     GEOM  =INPUT   
 NORMF =       0     NORMP =       0     ITOL  =      20     ICUT  =       9
 INTTYP=BEST         GRDTYP=BEST         QMTTOL= 1.0E-06

     $SYSTEM OPTIONS
     ---------------
  REPLICATED MEMORY=     1000000 WORDS (ON EVERY NODE).
 DISTRIBUTED MEMDDI=           0 MILLION WORDS IN AGGREGATE,
 MEMDDI DISTRIBUTED OVER   1 PROCESSORS IS           0 WORDS/PROCESSOR.
 TOTAL MEMORY REQUESTED ON EACH PROCESSOR=     1000000 WORDS.
 TIMLIM=      525600.00 MINUTES, OR     365.0 DAYS.
 PARALL= F  BALTYP=  DLB     KDIAG=    0  COREFL= F
 MXSEQ2=     300 MXSEQ3=     150  mem10=         0

          ----------------
          PROPERTIES INPUT
          ----------------

     MOMENTS            FIELD           POTENTIAL          DENSITY
 IEMOM =       1   IEFLD =       0   IEPOT =       0   IEDEN =       0
 WHERE =COMASS     WHERE =NUCLEI     WHERE =NUCLEI     WHERE =NUCLEI  
 OUTPUT=BOTH       OUTPUT=BOTH       OUTPUT=BOTH       OUTPUT=BOTH    
 IEMINT=       0   IEFINT=       0                     IEDINT=       0
                                                       MORB  =       0
          EXTRAPOLATION IN EFFECT
          SOSCF IN EFFECT
 ORBITAL PRINTING OPTION: NPREO=     1    20     2     1

     -------------------------------
     INTEGRAL TRANSFORMATION OPTIONS
     -------------------------------
     NWORD  =            0
     CUTOFF = 1.0E-09     MPTRAN =       0
     DIRTRF =       F     AOINTS =DUP     

          ----------------------
          INTEGRAL INPUT OPTIONS
          ----------------------
 NOPK  =       1 NORDER=       0 SCHWRZ=       F

     ------------------------------------------
     THE POINT GROUP IS CNV, NAXIS= 2, ORDER= 4
     ------------------------------------------

     DIMENSIONS OF THE SYMMETRY SUBSPACES ARE
 A1  =   11     A2  =    1     B1  =    4     B2  =    4

 ..... DONE SETTING UP THE RUN .....
 STEP CPU TIME =     0.00 TOTAL CPU TIME =        0.0 (    0.0 MIN)
 TOTAL WALL CLOCK TIME=        0.0 SECONDS, CPU UTILIZATION IS   0.00%

          ********************
          1 ELECTRON INTEGRALS
          ********************
 ...... END OF ONE-ELECTRON INTEGRALS ......
 STEP CPU TIME =     0.00 TOTAL CPU TIME =        0.0 (    0.0 MIN)
 TOTAL WALL CLOCK TIME=        0.0 SECONDS, CPU UTILIZATION IS   0.00%

          -------------
          GUESS OPTIONS
          -------------
          GUESS =HUCKEL            NORB  =       0          NORDER=       0
          MIX   =       F          PRTMO =       F          PUNMO =       F
          TOLZ  = 1.0E-08          TOLE  = 1.0E-05
          SYMDEN=       F          PURIFY=       F

 INITIAL GUESS ORBITALS GENERATED BY HUCKEL   ROUTINE.
 HUCKEL GUESS REQUIRES      4469 WORDS.

 SYMMETRIES FOR INITIAL GUESS ORBITALS FOLLOW.   BOTH SET(S).
     2 ORBITALS ARE OCCUPIED (    1 CORE ORBITALS).
     2=A1       3=A1       4=A1       5=A1       6=A1       7=A1       8=A1  
     9=A1      10=A1      11=A1      12=A2  
 ...... END OF INITIAL ORBITAL SELECTION ......
 STEP CPU TIME =     0.00 TOTAL CPU TIME =        0.0 (    0.0 MIN)
 TOTAL WALL CLOCK TIME=        0.0 SECONDS, CPU UTILIZATION IS   0.00%

                    ----------------------
                    AO INTEGRAL TECHNOLOGY
                    ----------------------
     S,P,L SHELL ROTATED AXIS INTEGRALS, REPROGRAMMED BY
        KAZUYA ISHIMURA (IMS) AND JOSE SIERRA (SYNSTAR).
     S,P,D,L SHELL ROTATED AXIS INTEGRALS PROGRAMMED BY
        KAZUYA ISHIMURA (INSTITUTE FOR MOLECULAR SCIENCE).
     S,P,D,F,G SHELL TO TOTAL QUARTET ANGULAR MOMENTUM SUM 5,
        ERIC PROGRAM BY GRAHAM FLETCHER (ELORET AND NASA ADVANCED
        SUPERCOMPUTING DIVISION, AMES RESEARCH CENTER).
     S,P,D,F,G,L SHELL GENERAL RYS QUADRATURE PROGRAMMED BY
        MICHEL DUPUIS (PACIFIC NORTHWEST NATIONAL LABORATORY).

          --------------------
          2 ELECTRON INTEGRALS
          --------------------

 THE -PK- OPTION IS OFF, THE INTEGRALS ARE NOT IN SUPERMATRIX FORM.
 STORING   15000 INTEGRALS/RECORD ON DISK, USING 12 BYTES/INTEGRAL.
 TWO ELECTRON INTEGRAL EVALUATION REQUIRES   90424 WORDS OF MEMORY.
 II,JST,KST,LST =  1  1  1  1 NREC =         1 INTLOC =    1
 II,JST,KST,LST =  2  1  1  1 NREC =         1 INTLOC =    2
 II,JST,KST,LST =  3  1  1  1 NREC =         1 INTLOC =   34
 II,JST,KST,LST =  4  1  1  1 NREC =         1 INTLOC =  214
 II,JST,KST,LST =  5  1  1  1 NREC =         1 INTLOC = 1189
 II,JST,KST,LST =  6  1  1  1 NREC =         1 INTLOC = 1866
 II,JST,KST,LST =  7  1  1  1 NREC =         1 INTLOC = 2712
 TOTAL NUMBER OF NONZERO TWO-ELECTRON INTEGRALS =                5577
          1 INTEGRAL RECORDS WERE STORED ON DISK FILE  8.
  ...... END OF TWO-ELECTRON INTEGRALS .....
 STEP CPU TIME =     0.02 TOTAL CPU TIME =        0.0 (    0.0 MIN)
 TOTAL WALL CLOCK TIME=        0.0 SECONDS, CPU UTILIZATION IS  66.67%

          --------------------------
                 RHF SCF CALCULATION
          --------------------------

     NUCLEAR ENERGY =         0.5291772492
     MAXIT =   30     NPUNCH=    2
     EXTRAP=T  DAMP=F  SHIFT=F  RSTRCT=F  DIIS=F  DEM=F  SOSCF=T
     DENSITY MATRIX CONV=  1.00E-05
     SOSCF WILL OPTIMIZE      36 ORBITAL ROTATIONS, SOGTOL=   0.250
     MEMORY REQUIRED FOR RHF ITERS=     33224 WORDS.

 ITER EX DEM     TOTAL ENERGY        E CHANGE  DENSITY CHANGE     ORB. GRAD
   1  0  0       -7.6406823841    -7.6406823841   0.789401983   0.000000000
          ---------------START SECOND ORDER SCF---------------
 SOSCF IS SCALING ROTATION ANGLE MATRIX, SQCDF=    0.239538
   2  1  0       -7.8185284140    -0.1778460299   0.757402182   0.099121776
   3  2  0       -7.8965666900    -0.0780382760   0.173354811   0.023193827
   4  3  0       -7.9064115253    -0.0098448353   0.155962695   0.010267486
   5  4  0       -7.9080283239    -0.0016167986   0.085866594   0.008650898
   6  5  0       -7.9091629784    -0.0011346545   0.011483680   0.001725166
   7  6  0       -7.9092255085    -0.0000625301   0.001585037   0.000263915
   8  7  0       -7.9092266219    -0.0000011134   0.000176558   0.000077964
   9  8  0       -7.9092266339    -0.0000000120   0.000025130   0.000016869
  10  9  0       -7.9092266344    -0.0000000005   0.000002319   0.000000463
  11 10  0       -7.9092266344    -0.0000000000   0.000000292   0.000000045

          -----------------
          DENSITY CONVERGED
          -----------------
     TIME TO FORM FOCK OPERATORS=       0.0 SECONDS (       0.0 SEC/ITER)
     TIME TO SOLVE SCF EQUATIONS=       0.0 SECONDS (       0.0 SEC/ITER)

 FINAL RHF ENERGY IS       -7.9092266344 AFTER  11 ITERATIONS

 LZ VALUE ANALYSIS FOR THE MOS
 ----------------------------------------
 MO     1 (    1) HAS LZ(WEIGHT)= 0.00(100.0%) 
 MO     2 (    2) HAS LZ(WEIGHT)= 0.00(100.0%) 
 MO     3 (    3) HAS LZ(WEIGHT)= 0.00(100.0%) 
 MO     4 (    4) HAS LZ(WEIGHT)=-1.00( 50.0%)  1.00( 50.0%) 
 MO     5 (    4) HAS LZ(WEIGHT)=-1.00( 50.0%)  1.00( 50.0%) 
 MO     6 (    5) HAS LZ(WEIGHT)= 0.00(100.0%) 
 MO     7 (    6) HAS LZ(WEIGHT)= 0.00(100.0%) 
 MO     8 (    7) HAS LZ(WEIGHT)=-1.00( 50.0%)  1.00( 50.0%) 
 MO     9 (    7) HAS LZ(WEIGHT)=-1.00( 50.0%)  1.00( 50.0%) 
 MO    10 (    8) HAS LZ(WEIGHT)= 0.00(100.0%) 
 MO    11 (    9) HAS LZ(WEIGHT)=-2.00( 50.0%)  2.00( 50.0%) 
 MO    12 (    9) HAS LZ(WEIGHT)=-2.00( 50.0%)  2.00( 50.0%) 
 MO    13 (   10) HAS LZ(WEIGHT)=-1.00( 50.0%)  1.00( 50.0%) 
 MO    14 (   10) HAS LZ(WEIGHT)=-1.00( 50.0%)  1.00( 50.0%) 
 MO    15 (   11) HAS LZ(WEIGHT)= 0.00(100.0%) 
 MO    16 (   12) HAS LZ(WEIGHT)= 0.00(100.0%) 
 MO    17 (   13) HAS LZ(WEIGHT)= 0.00(100.0%) 
 MO    18 (   14) HAS LZ(WEIGHT)=-1.00( 50.0%)  1.00( 50.0%) 
 MO    19 (   14) HAS LZ(WEIGHT)=-1.00( 50.0%)  1.00( 50.0%) 
 MO    20 (   15) HAS LZ(WEIGHT)= 0.00(100.0%) 

          ------------
          EIGENVECTORS
          ------------

                      1          2          3          4          5
                   -2.5475    -0.2288    -0.0240     0.0395     0.0395
                     A1         A1         A1         B1         B2  
    1  LI 1  S    0.998753  -0.084138  -0.156071   0.000000   0.000000
    2  LI 1  S   -0.011875   0.000903  -0.080411   0.000000   0.000000
    3  LI 1  X    0.000000  -0.000000   0.000000   0.152993   0.000000
    4  LI 1  Y    0.000000  -0.000000   0.000000   0.000000   0.152993
    5  LI 1  Z   -0.004825   0.082069  -0.150541   0.000000   0.000000
    6  LI 1  S    0.001677   0.376939   0.799147   0.000000   0.000000
    7  LI 1  X    0.000000  -0.000000   0.000000   0.872394   0.000000
    8  LI 1  Y    0.000000  -0.000000   0.000000   0.000000   0.872394
    9  LI 1  Z    0.003158   0.165470  -0.428032   0.000000   0.000000
   10  LI 1 XX    0.008840   0.015866   0.045414   0.000000   0.000000
   11  LI 1 YY    0.008840   0.015866   0.045414   0.000000   0.000000
   12  LI 1 ZZ    0.008518   0.046139   0.052291   0.000000   0.000000
   13  LI 1 XY    0.000000  -0.000000   0.000000   0.000000   0.000000
   14  LI 1 XZ    0.000000  -0.000000   0.000000  -0.036346   0.000000
   15  LI 1 YZ    0.000000  -0.000000   0.000000   0.000000  -0.036346
   16  H  2  S    0.000122   0.249239  -0.076936   0.000000   0.000000
   17  H  2  S    0.000259   0.522456  -0.137011   0.000000   0.000000
   18  H  2  X    0.000000  -0.000000   0.000000   0.002062   0.000000
   19  H  2  Y    0.000000  -0.000000   0.000000   0.000000   0.002062
   20  H  2  Z   -0.000117  -0.002939  -0.001751   0.000000   0.000000

                      6          7          8          9         10
                    0.1154     0.1679     0.1859     0.1859     0.2209
                     A1         A1         B1         B2         A1  
    1  LI 1  S   -0.070533   0.075429   0.000000   0.000000   0.068292
    2  LI 1  S    0.871058   2.104316   0.000000   0.000000   2.417371
    3  LI 1  X    0.000000   0.000000   1.663397   0.000000  -0.000000
    4  LI 1  Y    0.000000   0.000000   0.000000   1.663397  -0.000000
    5  LI 1  Z   -0.164564  -1.207244   0.000000   0.000000   1.137148
    6  LI 1  S   -0.187323  -1.766339   0.000000   0.000000  -1.920914
    7  LI 1  X    0.000000   0.000000  -1.427748   0.000000  -0.000000
    8  LI 1  Y    0.000000   0.000000   0.000000  -1.427748  -0.000000
    9  LI 1  Z    1.028132   0.753024   0.000000   0.000000  -1.176776
   10  LI 1 XX   -0.028622  -0.241603   0.000000   0.000000  -0.208379
   11  LI 1 YY   -0.028622  -0.241603   0.000000   0.000000  -0.208379
   12  LI 1 ZZ   -0.154094  -0.113187   0.000000   0.000000  -0.248981
   13  LI 1 XY    0.000000   0.000000   0.000000   0.000000  -0.000000
   14  LI 1 XZ    0.000000   0.000000  -0.065609   0.000000  -0.000000
   15  LI 1 YZ    0.000000   0.000000   0.000000  -0.065609  -0.000000
   16  H  2  S   -0.122950   0.049994   0.000000   0.000000   0.000538
   17  H  2  S   -0.697565   0.257905   0.000000   0.000000   0.273965
   18  H  2  X    0.000000   0.000000  -0.000090   0.000000  -0.000000
   19  H  2  Y    0.000000   0.000000   0.000000  -0.000090  -0.000000
   20  H  2  Z   -0.002550   0.002037   0.000000   0.000000  -0.005804

                     11         12         13         14         15
                    0.5269     0.5269     0.5384     0.5384     0.5672
                     A2         A1         B1         B2         A1  
    1  LI 1  S    0.000000   0.000000  -0.000000  -0.000000  -0.018128
    2  LI 1  S    0.000000   0.000000  -0.000000  -0.000000  -0.154233
    3  LI 1  X    0.000000   0.000000   0.115079  -0.000000   0.000000
    4  LI 1  Y    0.000000   0.000000  -0.000000   0.115079   0.000000
    5  LI 1  Z    0.000000   0.000000  -0.000000  -0.000000   0.090492
    6  LI 1  S    0.000000   0.000000  -0.000000  -0.000000   0.197313
    7  LI 1  X    0.000000   0.000000  -0.062390  -0.000000   0.000000
    8  LI 1  Y    0.000000   0.000000  -0.000000  -0.062390   0.000000
    9  LI 1  Z    0.000000   0.000000  -0.000000  -0.000000   0.098380
   10  LI 1 XX    0.000000   0.866025  -0.000000  -0.000000  -0.481418
   11  LI 1 YY    0.000000  -0.866025  -0.000000  -0.000000  -0.481418
   12  LI 1 ZZ    0.000000   0.000000  -0.000000  -0.000000   1.016400
   13  LI 1 XY    1.000000   0.000000  -0.000000  -0.000000   0.000000
   14  LI 1 XZ    0.000000   0.000000   0.997099  -0.000000   0.000000
   15  LI 1 YZ    0.000000   0.000000  -0.000000   0.997099   0.000000
   16  H  2  S    0.000000   0.000000  -0.000000  -0.000000  -0.122275
   17  H  2  S    0.000000   0.000000  -0.000000  -0.000000  -0.199081
   18  H  2  X    0.000000   0.000000   0.007188  -0.000000   0.000000
   19  H  2  Y    0.000000   0.000000  -0.000000   0.007188   0.000000
   20  H  2  Z    0.000000   0.000000  -0.000000  -0.000000  -0.026562

                     16         17         18         19         20
                    1.1560     1.2715     2.4604     2.4604     2.4903
                     A1         A1         B1         B2         A1  
    1  LI 1  S    0.087450   0.078474   0.000000  -0.000000   0.000188
    2  LI 1  S    8.432474   4.145478   0.000000  -0.000000   0.681690
    3  LI 1  X    0.000000  -0.000000   0.008462  -0.000000  -0.000000
    4  LI 1  Y    0.000000  -0.000000   0.000000   0.008462  -0.000000
    5  LI 1  Z   -0.005821  -0.001410   0.000000  -0.000000   0.105872
    6  LI 1  S   -2.467978  -1.551289   0.000000  -0.000000  -0.182178
    7  LI 1  X    0.000000  -0.000000  -0.032764  -0.000000  -0.000000
    8  LI 1  Y    0.000000  -0.000000   0.000000  -0.032764  -0.000000
    9  LI 1  Z    0.138367  -0.260981   0.000000  -0.000000  -0.023819
   10  LI 1 XX   -2.879747  -1.241839   0.000000  -0.000000  -0.256720
   11  LI 1 YY   -2.879747  -1.241839   0.000000  -0.000000  -0.256720
   12  LI 1 ZZ   -2.749027  -1.513629   0.000000  -0.000000  -0.136510
   13  LI 1 XY    0.000000  -0.000000   0.000000  -0.000000  -0.000000
   14  LI 1 XZ    0.000000  -0.000000  -0.015343  -0.000000  -0.000000
   15  LI 1 YZ    0.000000  -0.000000   0.000000  -0.015343  -0.000000
   16  H  2  S    0.517577  -1.237049   0.000000  -0.000000   0.042079
   17  H  2  S   -0.566961   1.199248   0.000000  -0.000000  -0.082295
   18  H  2  X    0.000000  -0.000000   1.000303  -0.000000  -0.000000
   19  H  2  Y    0.000000  -0.000000   0.000000   1.000303  -0.000000
   20  H  2  Z   -0.020626   0.012631   0.000000  -0.000000   1.004851
 ...... END OF RHF CALCULATION ......
 STEP CPU TIME =     0.01 TOTAL CPU TIME =        0.0 (    0.0 MIN)
 TOTAL WALL CLOCK TIME=        0.0 SECONDS, CPU UTILIZATION IS  75.00%

     ----------------------------------------------------------------
     PROPERTY VALUES FOR THE RHF   SELF-CONSISTENT FIELD WAVEFUNCTION
     ----------------------------------------------------------------

          -----------------
          ENERGY COMPONENTS
          -----------------

         WAVEFUNCTION NORMALIZATION =       1.0000000000

                ONE ELECTRON ENERGY =     -11.3242028943
                TWO ELECTRON ENERGY =       2.8857990107
           NUCLEAR REPULSION ENERGY =       0.5291772492
                                      ------------------
                       TOTAL ENERGY =      -7.9092266344

 ELECTRON-ELECTRON POTENTIAL ENERGY =       2.8857990107
  NUCLEUS-ELECTRON POTENTIAL ENERGY =     -19.1151300347
   NUCLEUS-NUCLEUS POTENTIAL ENERGY =       0.5291772492
                                      ------------------
             TOTAL POTENTIAL ENERGY =     -15.7001537748
               TOTAL KINETIC ENERGY =       7.7909271404
                 VIRIAL RATIO (V/T) =       2.0151842639

  ...... PI ENERGY ANALYSIS ......

 ENERGY ANALYSIS:
            FOCK ENERGY=     -5.5526048707
          BARE H ENERGY=    -11.3242028943
     ELECTRONIC ENERGY =     -8.4384038825
         KINETIC ENERGY=      7.7909271404
          N-N REPULSION=      0.5291772492
           TOTAL ENERGY=     -7.9092266332
        SIGMA PART(1+2)=     -8.4384038825
               (K,V1,2)=      7.7909271404    -19.1151300347      2.8857990118
           PI PART(1+2)=      0.0000000000
               (K,V1,2)=      0.0000000000      0.0000000000      0.0000000000
  SIGMA SKELETON, ERROR=     -7.9092266332      0.0000000000
             MIXED PART= 0.00000E+00 0.00000E+00 0.00000E+00 0.00000E+00
 ...... END OF PI ENERGY ANALYSIS ......

          ---------------------------------------
          MULLIKEN AND LOWDIN POPULATION ANALYSES
          ---------------------------------------

     ATOMIC MULLIKEN POPULATION IN EACH MOLECULAR ORBITAL

                      1          2

                  2.000000   2.000000

    1             1.999996   0.724936
    2             0.000004   1.275064

               ----- POPULATIONS IN EACH AO -----
                             MULLIKEN      LOWDIN
              1  LI 1  S      1.99794     1.97904
              2  LI 1  S     -0.00276     0.11442
              3  LI 1  X      0.00000     0.00000
              4  LI 1  Y      0.00000     0.00000
              5  LI 1  Z      0.06934     0.09576
              6  LI 1  S      0.42952     0.29608
              7  LI 1  X      0.00000     0.00000
              8  LI 1  Y      0.00000     0.00000
              9  LI 1  Z      0.17193     0.18360
             10  LI 1 XX      0.01054     0.02164
             11  LI 1 YY      0.01054     0.02164
             12  LI 1 ZZ      0.03789     0.06058
             13  LI 1 XY      0.00000     0.00000
             14  LI 1 XZ      0.00000     0.00000
             15  LI 1 YZ      0.00000     0.00000
             16  H  2  S      0.33393     0.38065
             17  H  2  S      0.94099     0.84643
             18  H  2  X      0.00000     0.00000
             19  H  2  Y      0.00000     0.00000
             20  H  2  Z      0.00014     0.00016

          ----- MULLIKEN ATOMIC OVERLAP POPULATIONS -----
          (OFF-DIAGONAL ELEMENTS NEED TO BE MULTIPLIED BY 2)

             1           2

    1    2.4629226
    2    0.2620096   1.0130583

          TOTAL MULLIKEN AND LOWDIN ATOMIC POPULATIONS
       ATOM         MULL.POP.    CHARGE          LOW.POP.     CHARGE
    1 LI            2.724932    0.275068         2.772764    0.227236
    2 H             1.275068   -0.275068         1.227236   -0.227236

          -------------------------------
          BOND ORDER AND VALENCE ANALYSIS     BOND ORDER THRESHOLD=0.050
          -------------------------------

                   BOND                       BOND                       BOND
  ATOM PAIR DIST  ORDER      ATOM PAIR DIST  ORDER      ATOM PAIR DIST  ORDER
    1   2  3.000  0.924

                       TOTAL       BONDED        FREE
      ATOM            VALENCE     VALENCE     VALENCE
    1 LI                0.924       0.924       0.000
    2 H                 0.924       0.924       0.000

          ---------------------
          ELECTROSTATIC MOMENTS
          ---------------------

 POINT   1           X           Y           Z (BOHR)    CHARGE
                 0.000000    0.000000    0.712072        0.00 (A.U.)
         DX          DY          DZ         /D/  (DEBYE)
     0.000000    0.000000   -9.170194    9.170194
 ...... END OF PROPERTY EVALUATION ......
 STEP CPU TIME =     0.01 TOTAL CPU TIME =        0.0 (    0.0 MIN)
 TOTAL WALL CLOCK TIME=        0.0 SECONDS, CPU UTILIZATION IS  80.00%
               580000  WORDS OF DYNAMIC MEMORY USED
 EXECUTION OF GAMESS TERMINATED NORMALLY Thu Jan 17 17:48:57 2019
 DDI: 263640 bytes (0.3 MB / 0 MWords) used by master data server.

 ----------------------------------------
 CPU timing information for all processes
 ========================================
 0: 0.30 + 0.13 = 0.43
 1: 0.01 + 0.02 = 0.03
 ----------------------------------------
 ddikick.x: exited gracefully.
unset echo
----- accounting info -----
Files used on the master node bach.ad64.riken.go.jp were:
-rw-------  1 maho  staff      223  1 17 17:48 .//LiH.631g/3.0/LiH.631g.Hartree-Fock.3.0.gamess.F05
-rw-r--r--  1 maho  staff   180016  1 17 17:48 .//LiH.631g/3.0/LiH.631g.Hartree-Fock.3.0.gamess.F08
-rw-r--r--  1 maho  staff  1537840  1 17 17:48 .//LiH.631g/3.0/LiH.631g.Hartree-Fock.3.0.gamess.F10
-rw-r--r--  1 maho  staff     7352  1 17 17:48 .//LiH.631g/3.0/LiH.631g.Hartree-Fock.3.0.gamess.dat
-rw-------  1 maho  staff      223  1 17 17:48 .//LiH.631g/3.0/LiH.631g.Hartree-Fock.3.0.gamess.inp
-rw-r--r--  1 maho  staff    29215  1 17 17:49 .//LiH.631g/3.0/LiH.631g.Hartree-Fock.3.0.gamess.log
ls: No match.
ls: No match.
ls: No match.
2019年 1月17日 木曜日 17時49分00秒 JST
0.147u 0.113s 0:03.32 7.5%	0+0k 0+0io 0pf+0w
