----- GAMESS execution script 'rungms' -----
This job is running on host bach.ad64.riken.go.jp
under operating system Darwin at 2019年 1月17日 木曜日 17時49分43秒 JST
Available scratch disk space (Kbyte units) at beginning of the job is
Filesystem   1024-blocks       Used Available Capacity iused      ifree %iused  Mounted on
/dev/disk2s2  1953178672 1144752192 808426480    59%  984392 4293982887    0%   /Volumes/Users
GAMESS temporary binary files will be written to ./
GAMESS supplementary output files will be written to ./
Copying input file LiH.631g/3.3/LiH.631g.MP2.3.3.gamess.inp to your run's scratch directory...
cp LiH.631g/3.3/LiH.631g.MP2.3.3.gamess.inp .//LiH.631g/3.3/LiH.631g.MP2.3.3.gamess.F05
unset echo
/Volumes/Users/maho/bin/gamess//ddikick.x /Volumes/Users/maho/bin/gamess//gamess.00.x LiH.631g/3.3/LiH.631g.MP2.3.3.gamess -ddi 1 1 bach.ad64.riken.go.jp -scr ./

 Distributed Data Interface kickoff program.
 Initiating 1 compute processes on 1 nodes to run the following command:
 /Volumes/Users/maho/bin/gamess//gamess.00.x LiH.631g/3.3/LiH.631g.MP2.3.3.gamess 

          ******************************************************
          *         GAMESS VERSION = 18 AUG 2016 (R1)          *
          *             FROM IOWA STATE UNIVERSITY             *
          * M.W.SCHMIDT, K.K.BALDRIDGE, J.A.BOATZ, S.T.ELBERT, *
          *   M.S.GORDON, J.H.JENSEN, S.KOSEKI, N.MATSUNAGA,   *
          *          K.A.NGUYEN, S.J.SU, T.L.WINDUS,           *
          *       TOGETHER WITH M.DUPUIS, J.A.MONTGOMERY       *
          *         J.COMPUT.CHEM.  14, 1347-1363(1993)        *
          **************** 64 BIT APPLE VERSION ****************

  SINCE 1993, STUDENTS AND POSTDOCS WORKING AT IOWA STATE UNIVERSITY
  AND ALSO IN THEIR VARIOUS JOBS AFTER LEAVING ISU HAVE MADE IMPORTANT
  CONTRIBUTIONS TO THE CODE:
     IVANA ADAMOVIC, CHRISTINE AIKENS, YURI ALEXEEV, POOJA ARORA,
     ANDREY ASADCHEV, ROB BELL, PRADIPTA BANDYOPADHYAY, JONATHAN BENTZ,
     BRETT BODE, KURT BRORSEN, CALEB CARLIN, GALINA CHABAN, WEI CHEN,
     CHEOL HO CHOI, PAUL DAY, ALBERT DEFUSCO, NUWAN DESILVA, TIM DUDLEY,
     DMITRI FEDOROV, GRAHAM FLETCHER, MARK FREITAG, KURT GLAESEMANN,
     DAN KEMP, GRANT MERRILL, NORIYUKI MINEZAWA, JONATHAN MULLIN,
     TAKESHI NAGATA, SEAN NEDD, HEATHER NETZLOFF, BOSILJKA NJEGIC, RYAN OLSON,
     MIKE PAK, SPENCER PRUITT, LUKE ROSKOP, JIM SHOEMAKER, LYUDMILA SLIPCHENKO,
     TONY SMITH, SAROM SOK LEANG, JIE SONG, TETSUYA TAKETSUGU, SIMON WEBB,
     PENG XU, SOOHAENG YOO, FEDERICO ZAHARIEV

  ADDITIONAL CODE HAS BEEN PROVIDED BY COLLABORATORS IN OTHER GROUPS:
     IOWA STATE UNIVERSITY:
          JOE IVANIC, AARON WEST, LAIMUTIS BYTAUTAS, KLAUS RUEDENBERG
     UNIVERSITY OF TOKYO: KIMIHIKO HIRAO, TAKAHITO NAKAJIMA,
          TAKAO TSUNEDA, MUNEAKI KAMIYA, SUSUMU YANAGISAWA,
          KIYOSHI YAGI, MAHITO CHIBA, SEIKEN TOKURA, NAOAKI KAWAKAMI
     UNIVERSITY OF AARHUS: FRANK JENSEN
     UNIVERSITY OF IOWA: VISVALDAS KAIRYS, HUI LI
     NATIONAL INST. OF STANDARDS AND TECHNOLOGY: WALT STEVENS, DAVID GARMER
     UNIVERSITY OF PISA: BENEDETTA MENNUCCI, JACOPO TOMASI
     UNIVERSITY OF MEMPHIS: HENRY KURTZ, PRAKASHAN KORAMBATH
     UNIVERSITY OF ALBERTA: TOBY ZENG, MARIUSZ KLOBUKOWSKI
     UNIVERSITY OF NEW ENGLAND: MARK SPACKMAN
     MIE UNIVERSITY: HIROAKI UMEDA
     NAT. INST. OF ADVANCED INDUSTRIAL SCIENCE AND TECHNOLOGY: KAZUO KITAURA
     MICHIGAN STATE UNIVERSITY:
          KAROL KOWALSKI, MARTA WLOCH, JEFFREY GOUR, JESSE LUTZ,
          WEI LI, PIOTR PIECUCH
     UNIVERSITY OF SILESIA: MONIKA MUSIAL, STANISLAW KUCHARSKI
     FACULTES UNIVERSITAIRES NOTRE-DAME DE LA PAIX:
          OLIVIER QUINET, BENOIT CHAMPAGNE
     UNIVERSITY OF CALIFORNIA - SANTA BARBARA: BERNARD KIRTMAN
     INSTITUTE FOR MOLECULAR SCIENCE:
          KAZUYA ISHIMURA, MICHIO KATOUDA, AND SHIGERU NAGASE
     UNIVERSITY OF NOTRE DAME: ANNA POMOGAEVA, DAN CHIPMAN
     KYUSHU UNIVERSITY:
          HARUYUKI NAKANO,
          FENG LONG GU, JACEK KORCHOWIEC, MARCIN MAKOWSKI, AND YURIKO AOKI,
          HIROTOSHI MORI AND EISAKU MIYOSHI
     PENNSYLVANIA STATE UNIVERSITY:
          TZVETELIN IORDANOV, CHET SWALINA, JONATHAN SKONE,
          SHARON HAMMES-SCHIFFER
     WASEDA UNIVERSITY:
          MASATO KOBAYASHI, TOMOKO AKAMA, TSUGUKI TOUMA,
          TAKESHI YOSHIKAWA, YASUHIRO IKABATA, JUNJI SEINO,
          YUYA NAKAJIMA, HIROMI NAKAI
     NANJING UNIVERSITY: SHUHUA LI
     UNIVERSITY OF NEBRASKA:
          PEIFENG SU, DEJUN SI, NANDUN THELLAMUREGE, YALI WANG, HUI LI
     UNIVERSITY OF ZURICH: ROBERTO PEVERATI, KIM BALDRIDGE
     N. COPERNICUS UNIVERSITY AND JACKSON STATE UNIVERSITY:
          MARIA BARYSZ
     UNIVERSITY OF COPENHAGEN: Jimmy Kromann, CASPER STEINMANN
     TOKYO INSTITUTE OF TECHNOLOGY: HIROYA NAKATA
     NAGOYA UNIVERSITY: YOSHIO NISHIMOTO, STEPHAN IRLE
     MOSCOW STATE UNIVERSITY: VLADIMIR MIRONOV

 EXECUTION OF GAMESS BEGUN Thu Jan 17 17:49:44 2019

            ECHO OF THE FIRST FEW INPUT CARDS -
 INPUT CARD> $CONTRL MULT=1 SCFTYP=RHF MPLEVL=2 $END                                        
 INPUT CARD> $MP2 NACORE=0 NBCORE=0 $END                                                    
 INPUT CARD> $BASIS GBASIS=N31 NGAUSS=6 NDFUNC=1 NPFUNC=1 $END                              
 INPUT CARD> $GUESS GUESS=HUCKEL $END                                                       
 INPUT CARD> $DATA                                                                          
 INPUT CARD>LiH...HF...6-31G* basis                                                         
 INPUT CARD>Cnv   2                                                                         
 INPUT CARD>                                                                                
 INPUT CARD>Li    3.0    0.0      0.0     0.0                                               
 INPUT CARD>H     1.0    0.0      0.0     3.3                                               
 INPUT CARD> $END                                                                           
    1000000 WORDS OF MEMORY AVAILABLE

     BASIS OPTIONS
     -------------
     GBASIS=N31          IGAUSS=       6      POLAR=POPN31  
     NDFUNC=       1     NFFUNC=       0     DIFFSP=       F
     NPFUNC=       1      DIFFS=       F     BASNAM=        


     RUN TITLE
     ---------
 LiH...HF...6-31G* basis                                                         

 THE POINT GROUP OF THE MOLECULE IS CNV     
 THE ORDER OF THE PRINCIPAL AXIS IS     2

 ATOM      ATOMIC                      COORDINATES (BOHR)
           CHARGE         X                   Y                   Z
 LI          3.0     0.0000000000        0.0000000000        0.0000000000
 H           1.0     0.0000000000        0.0000000000        6.2360957595

          INTERNUCLEAR DISTANCES (ANGS.)
          ------------------------------

                1 LI         2 H     

   1 LI      0.0000000    3.3000000  
   2 H       3.3000000    0.0000000  

  * ... LESS THAN  3.000


     ATOMIC BASIS SET
     ----------------
 THE CONTRACTED PRIMITIVE FUNCTIONS HAVE BEEN UNNORMALIZED
 THE CONTRACTED BASIS FUNCTIONS ARE NOW NORMALIZED TO UNITY

  SHELL TYPE  PRIMITIVE        EXPONENT          CONTRACTION COEFFICIENT(S)

 LI        

      1   S       1           642.4189150    0.002142607810
      1   S       2            96.7985153    0.016208871501
      1   S       3            22.0911212    0.077315572504
      1   S       4             6.2010702    0.245786052013
      1   S       5             1.9351177    0.470189004025
      1   S       6             0.6367358    0.345470845019

      2   L       7             2.3249184   -0.035091745735    0.008941508043
      2   L       8             0.6324304   -0.191232843103    0.141009464046
      2   L       9             0.0790534    1.083987794916    0.945363695309

      3   L      10             0.0359620    1.000000000000    1.000000000000

      4   D      11             0.2000000    1.000000000000

 H         

      5   S      12            18.7311370    0.033494604338
      5   S      13             2.8253944    0.234726953484
      5   S      14             0.6401217    0.813757326146

      6   S      15             0.1612778    1.000000000000

      7   P      16             1.1000000    1.000000000000

 TOTAL NUMBER OF BASIS SET SHELLS             =    7
 NUMBER OF CARTESIAN GAUSSIAN BASIS FUNCTIONS =   20
 NUMBER OF ELECTRONS                          =    4
 CHARGE OF MOLECULE                           =    0
 SPIN MULTIPLICITY                            =    1
 NUMBER OF OCCUPIED ORBITALS (ALPHA)          =    2
 NUMBER OF OCCUPIED ORBITALS (BETA )          =    2
 TOTAL NUMBER OF ATOMS                        =    2
 THE NUCLEAR REPULSION ENERGY IS        0.4810702266

 THIS MOLECULE IS RECOGNIZED AS BEING LINEAR,
 ORBITAL LZ DEGENERACY TOLERANCE ETOLLZ= 1.00E-06

     $CONTRL OPTIONS
     ---------------
 SCFTYP=RHF          RUNTYP=ENERGY       EXETYP=RUN     
 MPLEVL=       2     CITYP =NONE         CCTYP =NONE         VBTYP =NONE    
 DFTTYP=NONE         TDDFT =NONE    
 MULT  =       1     ICHARG=       0     NZVAR =       0     COORD =UNIQUE  
 PP    =NONE         RELWFN=NONE         LOCAL =NONE         NUMGRD=       F
 ISPHER=      -1     NOSYM =       0     MAXIT =      30     UNITS =ANGS    
 PLTORB=       F     MOLPLT=       F     AIMPAC=       F     FRIEND=        
 NPRINT=       7     IREST =       0     GEOM  =INPUT   
 NORMF =       0     NORMP =       0     ITOL  =      20     ICUT  =       9
 INTTYP=BEST         GRDTYP=BEST         QMTTOL= 1.0E-06

     $SYSTEM OPTIONS
     ---------------
  REPLICATED MEMORY=     1000000 WORDS (ON EVERY NODE).
 DISTRIBUTED MEMDDI=           0 MILLION WORDS IN AGGREGATE,
 MEMDDI DISTRIBUTED OVER   1 PROCESSORS IS           0 WORDS/PROCESSOR.
 TOTAL MEMORY REQUESTED ON EACH PROCESSOR=     1000000 WORDS.
 TIMLIM=      525600.00 MINUTES, OR     365.0 DAYS.
 PARALL= F  BALTYP=  DLB     KDIAG=    0  COREFL= F
 MXSEQ2=     300 MXSEQ3=     150  mem10=         0

          ----------------
          PROPERTIES INPUT
          ----------------

     MOMENTS            FIELD           POTENTIAL          DENSITY
 IEMOM =       1   IEFLD =       0   IEPOT =       0   IEDEN =       0
 WHERE =COMASS     WHERE =NUCLEI     WHERE =NUCLEI     WHERE =NUCLEI  
 OUTPUT=BOTH       OUTPUT=BOTH       OUTPUT=BOTH       OUTPUT=BOTH    
 IEMINT=       0   IEFINT=       0                     IEDINT=       0
                                                       MORB  =       0
          EXTRAPOLATION IN EFFECT
          SOSCF IN EFFECT
 ORBITAL PRINTING OPTION: NPREO=     1    20     2     1

     -------------------------------
     INTEGRAL TRANSFORMATION OPTIONS
     -------------------------------
     NWORD  =            0
     CUTOFF = 1.0E-09     MPTRAN =       0
     DIRTRF =       F     AOINTS =DUP     

          ----------------------
          INTEGRAL INPUT OPTIONS
          ----------------------
 NOPK  =       1 NORDER=       0 SCHWRZ=       F

          -----------------------
          MP2 CONTROL INFORMATION
          -----------------------
          NACORE =        0  NBCORE =        0
          LMOMP2 =        F  AOINTS = DUP     
          METHOD =        2  NWORD  =               0
          MP2PRP =        F  OSPT   = NONE    
          CUTOFF = 1.00E-09  CPHFBS = BASISMO 
          CODE   = IMS     

          NUMBER OF CORE -A-  ORBITALS =     0
          NUMBER OF CORE -B-  ORBITALS =     0
          NUMBER OF OCC. -A-  ORBITALS =     2
          NUMBER OF OCC. -B-  ORBITALS =     2
          NUMBER OF MOLECULAR ORBITALS =    20
          NUMBER OF   BASIS  FUNCTIONS =    20


     ------------------------------------------
     THE POINT GROUP IS CNV, NAXIS= 2, ORDER= 4
     ------------------------------------------

     DIMENSIONS OF THE SYMMETRY SUBSPACES ARE
 A1  =   11     A2  =    1     B1  =    4     B2  =    4

 ..... DONE SETTING UP THE RUN .....
 STEP CPU TIME =     0.00 TOTAL CPU TIME =        0.0 (    0.0 MIN)
 TOTAL WALL CLOCK TIME=        0.0 SECONDS, CPU UTILIZATION IS   0.00%

          ********************
          1 ELECTRON INTEGRALS
          ********************
 ...... END OF ONE-ELECTRON INTEGRALS ......
 STEP CPU TIME =     0.00 TOTAL CPU TIME =        0.0 (    0.0 MIN)
 TOTAL WALL CLOCK TIME=        0.0 SECONDS, CPU UTILIZATION IS   0.00%

          -------------
          GUESS OPTIONS
          -------------
          GUESS =HUCKEL            NORB  =       0          NORDER=       0
          MIX   =       F          PRTMO =       F          PUNMO =       F
          TOLZ  = 1.0E-08          TOLE  = 1.0E-05
          SYMDEN=       F          PURIFY=       F

 INITIAL GUESS ORBITALS GENERATED BY HUCKEL   ROUTINE.
 HUCKEL GUESS REQUIRES      4469 WORDS.

 SYMMETRIES FOR INITIAL GUESS ORBITALS FOLLOW.   BOTH SET(S).
     2 ORBITALS ARE OCCUPIED (    1 CORE ORBITALS).
     2=A1       3=A1       4=A1       5=A1       6=A1       7=A1       8=A1  
     9=A1      10=A1      11=A1      12=A2  
 ...... END OF INITIAL ORBITAL SELECTION ......
 STEP CPU TIME =     0.00 TOTAL CPU TIME =        0.0 (    0.0 MIN)
 TOTAL WALL CLOCK TIME=        0.0 SECONDS, CPU UTILIZATION IS   0.00%

                    ----------------------
                    AO INTEGRAL TECHNOLOGY
                    ----------------------
     S,P,L SHELL ROTATED AXIS INTEGRALS, REPROGRAMMED BY
        KAZUYA ISHIMURA (IMS) AND JOSE SIERRA (SYNSTAR).
     S,P,D,L SHELL ROTATED AXIS INTEGRALS PROGRAMMED BY
        KAZUYA ISHIMURA (INSTITUTE FOR MOLECULAR SCIENCE).
     S,P,D,F,G SHELL TO TOTAL QUARTET ANGULAR MOMENTUM SUM 5,
        ERIC PROGRAM BY GRAHAM FLETCHER (ELORET AND NASA ADVANCED
        SUPERCOMPUTING DIVISION, AMES RESEARCH CENTER).
     S,P,D,F,G,L SHELL GENERAL RYS QUADRATURE PROGRAMMED BY
        MICHEL DUPUIS (PACIFIC NORTHWEST NATIONAL LABORATORY).

          --------------------
          2 ELECTRON INTEGRALS
          --------------------

 THE -PK- OPTION IS OFF, THE INTEGRALS ARE NOT IN SUPERMATRIX FORM.
 STORING   15000 INTEGRALS/RECORD ON DISK, USING 12 BYTES/INTEGRAL.
 TWO ELECTRON INTEGRAL EVALUATION REQUIRES   90424 WORDS OF MEMORY.
 II,JST,KST,LST =  1  1  1  1 NREC =         1 INTLOC =    1
 II,JST,KST,LST =  2  1  1  1 NREC =         1 INTLOC =    2
 II,JST,KST,LST =  3  1  1  1 NREC =         1 INTLOC =   34
 II,JST,KST,LST =  4  1  1  1 NREC =         1 INTLOC =  214
 II,JST,KST,LST =  5  1  1  1 NREC =         1 INTLOC = 1189
 II,JST,KST,LST =  6  1  1  1 NREC =         1 INTLOC = 1864
 II,JST,KST,LST =  7  1  1  1 NREC =         1 INTLOC = 2710
 TOTAL NUMBER OF NONZERO TWO-ELECTRON INTEGRALS =                5491
          1 INTEGRAL RECORDS WERE STORED ON DISK FILE  8.
  ...... END OF TWO-ELECTRON INTEGRALS .....
 STEP CPU TIME =     0.02 TOTAL CPU TIME =        0.0 (    0.0 MIN)
 TOTAL WALL CLOCK TIME=        0.0 SECONDS, CPU UTILIZATION IS 100.00%

          --------------------------
                 RHF SCF CALCULATION
          --------------------------

     NUCLEAR ENERGY =         0.4810702266
     MAXIT =   30     NPUNCH=    2
     EXTRAP=T  DAMP=F  SHIFT=F  RSTRCT=F  DIIS=F  DEM=F  SOSCF=T
     DENSITY MATRIX CONV=  1.00E-06
     SOSCF WILL OPTIMIZE      36 ORBITAL ROTATIONS, SOGTOL=   0.250
     MEMORY REQUIRED FOR RHF ITERS=     33224 WORDS.

 ITER EX DEM     TOTAL ENERGY        E CHANGE  DENSITY CHANGE     ORB. GRAD
   1  0  0       -7.5938592695    -7.5938592695   1.113566435   0.000000000
          ---------------START SECOND ORDER SCF---------------
 SOSCF IS SCALING ROTATION ANGLE MATRIX, SQCDF=    0.385278
   2  1  0       -7.6578283898    -0.0639691203   0.887187171   0.140362218
   3  2  0       -7.8872121293    -0.2293837396   0.130352463   0.014862014
   4  3  0       -7.8913811716    -0.0041690423   0.031657780   0.008861369
   5  4  0       -7.8922092429    -0.0008280713   0.011151991   0.001287112
   6  5  0       -7.8922245008    -0.0000152579   0.001988262   0.000392599
   7  6  0       -7.8922249066    -0.0000004058   0.000166677   0.000073528
   8  7  0       -7.8922249221    -0.0000000155   0.000029238   0.000003374
   9  8  0       -7.8922249222    -0.0000000001   0.000001615   0.000000511
  10  9  0       -7.8922249222    -0.0000000000   0.000000173   0.000000059

          -----------------
          DENSITY CONVERGED
          -----------------
     TIME TO FORM FOCK OPERATORS=       0.0 SECONDS (       0.0 SEC/ITER)
     TIME TO SOLVE SCF EQUATIONS=       0.0 SECONDS (       0.0 SEC/ITER)

 FINAL RHF ENERGY IS       -7.8922249222 AFTER  10 ITERATIONS

 LZ VALUE ANALYSIS FOR THE MOS
 ----------------------------------------
 MO     1 (    1) HAS LZ(WEIGHT)= 0.00(100.0%) 
 MO     2 (    2) HAS LZ(WEIGHT)= 0.00(100.0%) 
 MO     3 (    3) HAS LZ(WEIGHT)= 0.00(100.0%) 
 MO     4 (    4) HAS LZ(WEIGHT)=-1.00( 50.0%)  1.00( 50.0%) 
 MO     5 (    4) HAS LZ(WEIGHT)=-1.00( 50.0%)  1.00( 50.0%) 
 MO     6 (    5) HAS LZ(WEIGHT)= 0.00(100.0%) 
 MO     7 (    6) HAS LZ(WEIGHT)= 0.00(100.0%) 
 MO     8 (    7) HAS LZ(WEIGHT)=-1.00( 50.0%)  1.00( 50.0%) 
 MO     9 (    7) HAS LZ(WEIGHT)=-1.00( 50.0%)  1.00( 50.0%) 
 MO    10 (    8) HAS LZ(WEIGHT)= 0.00(100.0%) 
 MO    11 (    9) HAS LZ(WEIGHT)=-2.00( 50.0%)  2.00( 50.0%) 
 MO    12 (    9) HAS LZ(WEIGHT)=-2.00( 50.0%)  2.00( 50.0%) 
 MO    13 (   10) HAS LZ(WEIGHT)=-1.00( 50.0%)  1.00( 50.0%) 
 MO    14 (   10) HAS LZ(WEIGHT)=-1.00( 50.0%)  1.00( 50.0%) 
 MO    15 (   11) HAS LZ(WEIGHT)= 0.00(100.0%) 
 MO    16 (   12) HAS LZ(WEIGHT)= 0.00(100.0%) 
 MO    17 (   13) HAS LZ(WEIGHT)= 0.00(100.0%) 
 MO    18 (   14) HAS LZ(WEIGHT)=-1.00( 50.0%)  1.00( 50.0%) 
 MO    19 (   14) HAS LZ(WEIGHT)=-1.00( 50.0%)  1.00( 50.0%) 
 MO    20 (   15) HAS LZ(WEIGHT)= 0.00(100.0%) 

          ------------
          EIGENVECTORS
          ------------

                      1          2          3          4          5
                   -2.5603    -0.2174    -0.0301     0.0350     0.0350
                     A1         A1         A1         B1         B2  
    1  LI 1  S    0.998753  -0.084832  -0.158275  -0.000000  -0.000000
    2  LI 1  S   -0.012061  -0.026671  -0.029145  -0.000000  -0.000000
    3  LI 1  X    0.000000  -0.000000  -0.000000   0.180131  -0.000000
    4  LI 1  Y    0.000000  -0.000000  -0.000000  -0.000000   0.180131
    5  LI 1  Z   -0.004220   0.057864  -0.141319  -0.000000  -0.000000
    6  LI 1  S    0.001844   0.408291   0.776342  -0.000000  -0.000000
    7  LI 1  X    0.000000  -0.000000  -0.000000   0.849074  -0.000000
    8  LI 1  Y    0.000000  -0.000000  -0.000000  -0.000000   0.849074
    9  LI 1  Z    0.002839   0.185673  -0.400007  -0.000000  -0.000000
   10  LI 1 XX    0.008813   0.018863   0.041606  -0.000000  -0.000000
   11  LI 1 YY    0.008813   0.018863   0.041606  -0.000000  -0.000000
   12  LI 1 ZZ    0.008563   0.048151   0.045018  -0.000000  -0.000000
   13  LI 1 XY    0.000000  -0.000000  -0.000000  -0.000000  -0.000000
   14  LI 1 XZ    0.000000  -0.000000  -0.000000  -0.034878  -0.000000
   15  LI 1 YZ    0.000000  -0.000000  -0.000000  -0.000000  -0.034878
   16  H  2  S    0.000097   0.245933  -0.082952  -0.000000  -0.000000
   17  H  2  S    0.000008   0.541711  -0.167557  -0.000000  -0.000000
   18  H  2  X    0.000000  -0.000000  -0.000000   0.001818  -0.000000
   19  H  2  Y    0.000000  -0.000000  -0.000000  -0.000000   0.001818
   20  H  2  Z   -0.000096  -0.002335  -0.001411  -0.000000  -0.000000

                      6          7          8          9         10
                    0.0998     0.1608     0.1798     0.1798     0.2221
                     A1         A1         B2         B1         A1  
    1  LI 1  S   -0.063646   0.064783   0.000000   0.000000   0.074820
    2  LI 1  S    0.797378   2.100250   0.000000   0.000000   2.455697
    3  LI 1  X    0.000000   0.000000   0.000000   1.661342  -0.000000
    4  LI 1  Y    0.000000   0.000000   1.661342   0.000000  -0.000000
    5  LI 1  Z    0.014063  -1.251304   0.000000   0.000000   1.128664
    6  LI 1  S   -0.192974  -1.700328   0.000000   0.000000  -1.978892
    7  LI 1  X    0.000000   0.000000   0.000000  -1.441988  -0.000000
    8  LI 1  Y    0.000000   0.000000  -1.441988   0.000000  -0.000000
    9  LI 1  Z    0.874948   0.901531   0.000000   0.000000  -1.223623
   10  LI 1 XX   -0.018253  -0.231982   0.000000   0.000000  -0.220264
   11  LI 1 YY   -0.018253  -0.231982   0.000000   0.000000  -0.220264
   12  LI 1 ZZ   -0.146881  -0.130301   0.000000   0.000000  -0.232426
   13  LI 1 XY    0.000000   0.000000   0.000000   0.000000  -0.000000
   14  LI 1 XZ    0.000000   0.000000   0.000000  -0.059209  -0.000000
   15  LI 1 YZ    0.000000   0.000000  -0.059209   0.000000  -0.000000
   16  H  2  S   -0.122556   0.037671   0.000000   0.000000   0.017507
   17  H  2  S   -0.635612   0.130747   0.000000   0.000000   0.372244
   18  H  2  X    0.000000   0.000000   0.000000  -0.000449  -0.000000
   19  H  2  Y    0.000000   0.000000  -0.000449   0.000000  -0.000000
   20  H  2  Z   -0.003278   0.002720   0.000000   0.000000  -0.004506

                     11         12         13         14         15
                    0.5180     0.5180     0.5283     0.5283     0.5438
                     A2         A1         B1         B2         A1  
    1  LI 1  S    0.000000   0.000000  -0.000000  -0.000000  -0.011491
    2  LI 1  S    0.000000   0.000000  -0.000000  -0.000000  -0.085995
    3  LI 1  X    0.000000   0.000000   0.104953  -0.000000  -0.000000
    4  LI 1  Y    0.000000   0.000000  -0.000000   0.104953  -0.000000
    5  LI 1  Z    0.000000   0.000000  -0.000000  -0.000000   0.063981
    6  LI 1  S    0.000000   0.000000  -0.000000  -0.000000   0.129468
    7  LI 1  X    0.000000   0.000000  -0.056019  -0.000000  -0.000000
    8  LI 1  Y    0.000000   0.000000  -0.000000  -0.056019  -0.000000
    9  LI 1  Z    0.000000   0.000000  -0.000000  -0.000000   0.067330
   10  LI 1 XX    0.000000   0.866025  -0.000000  -0.000000  -0.494195
   11  LI 1 YY    0.000000  -0.866025  -0.000000  -0.000000  -0.494195
   12  LI 1 ZZ    0.000000   0.000000  -0.000000  -0.000000   0.992811
   13  LI 1 XY    1.000000   0.000000  -0.000000  -0.000000  -0.000000
   14  LI 1 XZ    0.000000   0.000000   0.997620  -0.000000  -0.000000
   15  LI 1 YZ    0.000000   0.000000  -0.000000   0.997620  -0.000000
   16  H  2  S    0.000000   0.000000  -0.000000  -0.000000  -0.121942
   17  H  2  S    0.000000   0.000000  -0.000000  -0.000000  -0.103781
   18  H  2  X    0.000000   0.000000   0.003522  -0.000000  -0.000000
   19  H  2  Y    0.000000   0.000000  -0.000000   0.003522  -0.000000
   20  H  2  Z    0.000000   0.000000  -0.000000  -0.000000  -0.016805

                     16         17         18         19         20
                    1.1520     1.2471     2.4616     2.4616     2.4802
                     A1         A1         B1         B2         A1  
    1  LI 1  S    0.092722   0.073217  -0.000000   0.000000   0.003069
    2  LI 1  S    8.553830   3.881859  -0.000000   0.000000   0.776063
    3  LI 1  X    0.000000   0.000000   0.015531   0.000000  -0.000000
    4  LI 1  Y    0.000000   0.000000  -0.000000   0.015531  -0.000000
    5  LI 1  Z   -0.020038   0.042645  -0.000000   0.000000   0.058027
    6  LI 1  S   -2.542845  -1.451648  -0.000000   0.000000  -0.205067
    7  LI 1  X    0.000000   0.000000  -0.033147   0.000000  -0.000000
    8  LI 1  Y    0.000000   0.000000  -0.000000  -0.033147  -0.000000
    9  LI 1  Z    0.109254  -0.263297  -0.000000   0.000000   0.003258
   10  LI 1 XX   -2.903750  -1.155510  -0.000000   0.000000  -0.279017
   11  LI 1 YY   -2.903750  -1.155510  -0.000000   0.000000  -0.279017
   12  LI 1 ZZ   -2.813098  -1.392593  -0.000000   0.000000  -0.219152
   13  LI 1 XY    0.000000   0.000000  -0.000000   0.000000  -0.000000
   14  LI 1 XZ    0.000000   0.000000  -0.006371   0.000000  -0.000000
   15  LI 1 YZ    0.000000   0.000000  -0.000000  -0.006371  -0.000000
   16  H  2  S    0.495787  -1.232934  -0.000000   0.000000   0.024934
   17  H  2  S   -0.480812   1.164621  -0.000000   0.000000  -0.047523
   18  H  2  X    0.000000   0.000000   1.000214   0.000000  -0.000000
   19  H  2  Y    0.000000   0.000000  -0.000000   1.000214  -0.000000
   20  H  2  Z   -0.031160  -0.001245  -0.000000   0.000000   1.002491
 ...... END OF RHF CALCULATION ......
 STEP CPU TIME =     0.01 TOTAL CPU TIME =        0.0 (    0.0 MIN)
 TOTAL WALL CLOCK TIME=        0.2 SECONDS, CPU UTILIZATION IS  20.00%

     ----------------------------------------------------------------
     PROPERTY VALUES FOR THE RHF   SELF-CONSISTENT FIELD WAVEFUNCTION
     ----------------------------------------------------------------

          -----------------
          ENERGY COMPONENTS
          -----------------

         WAVEFUNCTION NORMALIZATION =       1.0000000000

                ONE ELECTRON ENERGY =     -11.1913502768
                TWO ELECTRON ENERGY =       2.8180551280
           NUCLEAR REPULSION ENERGY =       0.4810702266
                                      ------------------
                       TOTAL ENERGY =      -7.8922249222

 ELECTRON-ELECTRON POTENTIAL ENERGY =       2.8180551280
  NUCLEUS-ELECTRON POTENTIAL ENERGY =     -18.9786550776
   NUCLEUS-NUCLEUS POTENTIAL ENERGY =       0.4810702266
                                      ------------------
             TOTAL POTENTIAL ENERGY =     -15.6795297230
               TOTAL KINETIC ENERGY =       7.7873048008
                 VIRIAL RATIO (V/T) =       2.0134732265

  ...... PI ENERGY ANALYSIS ......

 ENERGY ANALYSIS:
            FOCK ENERGY=     -5.5552400206
          BARE H ENERGY=    -11.1913502768
     ELECTRONIC ENERGY =     -8.3732951487
         KINETIC ENERGY=      7.7873048008
          N-N REPULSION=      0.4810702266
           TOTAL ENERGY=     -7.8922249221
        SIGMA PART(1+2)=     -8.3732951487
               (K,V1,2)=      7.7873048008    -18.9786550776      2.8180551281
           PI PART(1+2)=      0.0000000000
               (K,V1,2)=      0.0000000000      0.0000000000      0.0000000000
  SIGMA SKELETON, ERROR=     -7.8922249221      0.0000000000
             MIXED PART= 0.00000E+00 0.00000E+00 0.00000E+00 0.00000E+00
 ...... END OF PI ENERGY ANALYSIS ......

          ---------------------------------------
          MULLIKEN AND LOWDIN POPULATION ANALYSES
          ---------------------------------------

     ATOMIC MULLIKEN POPULATION IN EACH MOLECULAR ORBITAL

                      1          2

                  2.000000   2.000000

    1             2.000000   0.709933
    2             0.000000   1.290067

               ----- POPULATIONS IN EACH AO -----
                             MULLIKEN      LOWDIN
              1  LI 1  S      1.99793     1.97900
              2  LI 1  S     -0.02867     0.10593
              3  LI 1  X      0.00000     0.00000
              4  LI 1  Y      0.00000     0.00000
              5  LI 1  Z      0.04259     0.06950
              6  LI 1  S      0.45342     0.30447
              7  LI 1  X      0.00000     0.00000
              8  LI 1  Y      0.00000     0.00000
              9  LI 1  Z      0.18503     0.18504
             10  LI 1 XX      0.01198     0.02135
             11  LI 1 YY      0.01198     0.02135
             12  LI 1 ZZ      0.03568     0.04914
             13  LI 1 XY      0.00000     0.00000
             14  LI 1 XZ      0.00000     0.00000
             15  LI 1 YZ      0.00000     0.00000
             16  H  2  S      0.32787     0.38158
             17  H  2  S      0.96210     0.88250
             18  H  2  X      0.00000     0.00000
             19  H  2  Y      0.00000     0.00000
             20  H  2  Z      0.00009     0.00014

          ----- MULLIKEN ATOMIC OVERLAP POPULATIONS -----
          (OFF-DIAGONAL ELEMENTS NEED TO BE MULTIPLIED BY 2)

             1           2

    1    2.4785471
    2    0.2313860   1.0586810

          TOTAL MULLIKEN AND LOWDIN ATOMIC POPULATIONS
       ATOM         MULL.POP.    CHARGE          LOW.POP.     CHARGE
    1 LI            2.709933    0.290067         2.735780    0.264220
    2 H             1.290067   -0.290067         1.264220   -0.264220

          -------------------------------
          BOND ORDER AND VALENCE ANALYSIS     BOND ORDER THRESHOLD=0.050
          -------------------------------

                   BOND                       BOND                       BOND
  ATOM PAIR DIST  ORDER      ATOM PAIR DIST  ORDER      ATOM PAIR DIST  ORDER
    1   2  3.300  0.916

                       TOTAL       BONDED        FREE
      ATOM            VALENCE     VALENCE     VALENCE
    1 LI                0.916       0.916      -0.000
    2 H                 0.916       0.916      -0.000

          ---------------------
          ELECTROSTATIC MOMENTS
          ---------------------

 POINT   1           X           Y           Z (BOHR)    CHARGE
                 0.000000    0.000000    0.783279        0.00 (A.U.)
         DX          DY          DZ         /D/  (DEBYE)
     0.000000    0.000000   -9.847938    9.847938
 ...... END OF PROPERTY EVALUATION ......
 STEP CPU TIME =     0.01 TOTAL CPU TIME =        0.0 (    0.0 MIN)
 TOTAL WALL CLOCK TIME=        0.2 SECONDS, CPU UTILIZATION IS  26.67%

 --------------------------   -----------------------------
 RHF-MP2 ENERGY CALCULATION   PROGRAM WRITTEN BY K.ISHIMURA
 --------------------------   -----------------------------
 NUMBER OF OCCUPIED ORBITALS            =    2
 NUMBER OF CORRELATED OCCUPIED ORBITALS =    2
 NUMBER OF VIRTUAL ORBITALS             =   18
 NUMBER OF BASIS FUNCTIONS              =   20
 NUMBER OF BASIS SHELLS                 =    7
 AO-TRANSFORMED INTEGRAL THRESHOLD      = 1.00E-09
 HALF-TRANSFORMED INTEGRAL THRESHOLD    = 1.37E-11
 TOTAL DISK REQUIRED (ALL PROCESSORS)=              0 MBYTES
                  DISK SPACE PER CORE=              0 MBYTES, USING P=    1
 MEMORY REQUIRED FOR TRANSFORMATION OF 1ST THREE INDICES=       12422
 MEMORY REQUIRED FOR    4TH INDEX TRANSF. AND MP2 ENERGY=        3084
 BEGINNING MP2 INTEGRAL TRANSFORMATION...
 BEGINNING    1ST SHELL LOOP...

 RESULTS OF MOLLER-PLESSET 2ND ORDER CORRECTION ARE
               E(0)=        -7.8922249222
               E(1)=         0.0
               E(2)=        -0.0262896874
             E(MP2)=        -7.9185146096
 SPIN-COMPONENT-SCALED MP2 RESULTS ARE
              E(2S)=        -0.0262782779
              E(2T)=        -0.0000114096
             E(2ST)=        -0.0315377366 = 6/5 * E(2S) + 1/3 * E(2T)
            SCS-MP2=        -7.9237626588
 ..... DONE WITH MP2 ENERGY .....
 STEP CPU TIME =     0.01 TOTAL CPU TIME =        0.0 (    0.0 MIN)
 TOTAL WALL CLOCK TIME=        0.2 SECONDS, CPU UTILIZATION IS  22.73%
               580000  WORDS OF DYNAMIC MEMORY USED
 EXECUTION OF GAMESS TERMINATED NORMALLY Thu Jan 17 17:49:44 2019
 DDI: 263640 bytes (0.3 MB / 0 MWords) used by master data server.

 ----------------------------------------
 CPU timing information for all processes
 ========================================
 0: 0.41 + 0.16 = 0.57
 1: 0.01 + 0.02 = 0.03
 ----------------------------------------
 ddikick.x: exited gracefully.
unset echo
----- accounting info -----
Files used on the master node bach.ad64.riken.go.jp were:
-rw-------  1 maho  staff      261  1 17 17:49 .//LiH.631g/3.3/LiH.631g.MP2.3.3.gamess.F05
-rw-r--r--  1 maho  staff   180016  1 17 17:49 .//LiH.631g/3.3/LiH.631g.MP2.3.3.gamess.F08
-rw-r--r--  1 maho  staff  1537840  1 17 17:49 .//LiH.631g/3.3/LiH.631g.MP2.3.3.gamess.F10
-rw-r--r--  1 maho  staff     7352  1 17 17:49 .//LiH.631g/3.3/LiH.631g.MP2.3.3.gamess.dat
-rw-------  1 maho  staff      261  1 17 17:49 .//LiH.631g/3.3/LiH.631g.MP2.3.3.gamess.inp
-rw-r--r--  1 maho  staff    31333  1 17 17:49 .//LiH.631g/3.3/LiH.631g.MP2.3.3.gamess.log
ls: No match.
ls: No match.
ls: No match.
2019年 1月17日 木曜日 17時49分47秒 JST
0.154u 0.117s 0:03.51 7.4%	0+0k 0+0io 0pf+0w
