----- GAMESS execution script 'rungms' -----
This job is running on host localhost
under operating system Linux at Thu Jan 17 19:11:50 JST 2019
Available scratch disk space (Kbyte units) at beginning of the job is
Filesystem     1K-blocks      Used Available Use% Mounted on
/dev/sda1      895286904 141747696 708038180  17% /
GAMESS temporary binary files will be written to .
GAMESS supplementary output files will be written to .
Copying input file N2.SV/4.6/N2.SV.fullCI.4.6.gamess.inp to your run's scratch directory...
cp N2.SV/4.6/N2.SV.fullCI.4.6.gamess.inp ./N2.SV/4.6/N2.SV.fullCI.4.6.gamess.F05
unset echo
/work/pubchem/pm6/pkg/gamess_intel/ddikick.x /work/pubchem/pm6/pkg/gamess_intel/gamess.00.x N2.SV/4.6/N2.SV.fullCI.4.6.gamess -ddi 12 12 localhost localhost localhost localhost localhost localhost localhost localhost localhost localhost localhost localhost -scr .

 Distributed Data Interface kickoff program.
 Initiating 12 compute processes on 12 nodes to run the following command:
 /work/pubchem/pm6/pkg/gamess_intel/gamess.00.x N2.SV/4.6/N2.SV.fullCI.4.6.gamess 

          ******************************************************
          *         GAMESS VERSION =  5 DEC 2014 (R1)          *
          *             FROM IOWA STATE UNIVERSITY             *
          * M.W.SCHMIDT, K.K.BALDRIDGE, J.A.BOATZ, S.T.ELBERT, *
          *   M.S.GORDON, J.H.JENSEN, S.KOSEKI, N.MATSUNAGA,   *
          *          K.A.NGUYEN, S.J.SU, T.L.WINDUS,           *
          *       TOGETHER WITH M.DUPUIS, J.A.MONTGOMERY       *
          *         J.COMPUT.CHEM.  14, 1347-1363(1993)        *
          **************** 64 BIT INTEL VERSION ****************

  SINCE 1993, STUDENTS AND POSTDOCS WORKING AT IOWA STATE UNIVERSITY
  AND ALSO IN THEIR VARIOUS JOBS AFTER LEAVING ISU HAVE MADE IMPORTANT
  CONTRIBUTIONS TO THE CODE:
     IVANA ADAMOVIC, CHRISTINE AIKENS, YURI ALEXEEV, POOJA ARORA,
     ANDREY ASADCHEV, ROB BELL, PRADIPTA BANDYOPADHYAY, JONATHAN BENTZ,
     BRETT BODE, KURT BRORSEN, CALEB CARLIN, GALINA CHABAN, WEI CHEN,
     CHEOL HO CHOI, PAUL DAY, ALBERT DEFUSCO, NUWAN DESILVA, TIM DUDLEY,
     DMITRI FEDOROV, GRAHAM FLETCHER, MARK FREITAG, KURT GLAESEMANN,
     DAN KEMP, GRANT MERRILL, NORIYUKI MINEZAWA, JONATHAN MULLIN,
     TAKESHI NAGATA, SEAN NEDD, HEATHER NETZLOFF, BOSILJKA NJEGIC, RYAN OLSON,
     MIKE PAK, SPENCER PRUITT, LUKE ROSKOP, JIM SHOEMAKER, LYUDMILA SLIPCHENKO,
     TONY SMITH, SAROM SOK, JIE SONG, TETSUYA TAKETSUGU, SIMON WEBB,
     PENG XU, SOOHAENG YOO, FEDERICO ZAHARIEV

  ADDITIONAL CODE HAS BEEN PROVIDED BY COLLABORATORS IN OTHER GROUPS:
     IOWA STATE UNIVERSITY:
          JOE IVANIC, AARON WEST, LAIMUTIS BYTAUTAS, KLAUS RUEDENBERG
     UNIVERSITY OF TOKYO: KIMIHIKO HIRAO, TAKAHITO NAKAJIMA,
          TAKAO TSUNEDA, MUNEAKI KAMIYA, SUSUMU YANAGISAWA,
          KIYOSHI YAGI, MAHITO CHIBA, SEIKEN TOKURA, NAOAKI KAWAKAMI
     UNIVERSITY OF AARHUS: FRANK JENSEN
     UNIVERSITY OF IOWA: VISVALDAS KAIRYS, HUI LI
     NATIONAL INST. OF STANDARDS AND TECHNOLOGY: WALT STEVENS, DAVID GARMER
     UNIVERSITY OF PISA: BENEDETTA MENNUCCI, JACOPO TOMASI
     UNIVERSITY OF MEMPHIS: HENRY KURTZ, PRAKASHAN KORAMBATH
     UNIVERSITY OF ALBERTA: TOBY ZENG, MARIUSZ KLOBUKOWSKI
     UNIVERSITY OF NEW ENGLAND: MARK SPACKMAN
     MIE UNIVERSITY: HIROAKI UMEDA
     NAT. INST. OF ADVANCED INDUSTRIAL SCIENCE AND TECHNOLOGY: KAZUO KITAURA
     MICHIGAN STATE UNIVERSITY:
          KAROL KOWALSKI, MARTA WLOCH, JEFFREY GOUR, JESSE LUTZ,
          WEI LI, PIOTR PIECUCH
     UNIVERSITY OF SILESIA: MONIKA MUSIAL, STANISLAW KUCHARSKI
     FACULTES UNIVERSITAIRES NOTRE-DAME DE LA PAIX:
          OLIVIER QUINET, BENOIT CHAMPAGNE
     UNIVERSITY OF CALIFORNIA - SANTA BARBARA: BERNARD KIRTMAN
     INSTITUTE FOR MOLECULAR SCIENCE:
          KAZUYA ISHIMURA, MICHIO KATOUDA, AND SHIGERU NAGASE
     UNIVERSITY OF NOTRE DAME: ANNA POMOGAEVA, DAN CHIPMAN
     KYUSHU UNIVERSITY:
          HARUYUKI NAKANO,
          FENG LONG GU, JACEK KORCHOWIEC, MARCIN MAKOWSKI, AND YURIKO AOKI,
          HIROTOSHI MORI AND EISAKU MIYOSHI
     PENNSYLVANIA STATE UNIVERSITY:
          TZVETELIN IORDANOV, CHET SWALINA, JONATHAN SKONE,
          SHARON HAMMES-SCHIFFER
     WASEDA UNIVERSITY:
          MASATO KOBAYASHI, TOMOKO AKAMA, TSUGUKI TOUMA,
          TAKESHI YOSHIKAWA, YASUHIRO IKABATA, HIROMI NAKAI
     NANJING UNIVERSITY: SHUHUA LI
     UNIVERSITY OF NEBRASKA:
          PEIFENG SU, DEJUN SI, NANDUN THELLAMUREGE, YALI WANG, HUI LI
     UNIVERSITY OF ZURICH: ROBERTO PEVERATI, KIM BALDRIDGE
     N. COPERNICUS UNIVERSITY AND JACKSON STATE UNIVERSITY:
          MARIA BARYSZ
     UNIVERSITY OF COPENHAGEN: CASPER STEINMANN
     TOKYO INSTITUTE OF TECHNOLOGY: HIROYA NAKATA
     NAGOYA UNIVERSITY: YOSHIO NISHIMOTO, STEPHAN IRLE


 PARALLEL VERSION RUNNING ON       12 PROCESSORS IN       12 NODES.

 EXECUTION OF GAMESS BEGUN Thu Jan 17 19:11:51 2019

            ECHO OF THE FIRST FEW INPUT CARDS -
 INPUT CARD> $CONTRL SCFTYP=RHF CITYP=ALDET $END                                            
 INPUT CARD> $GUESS GUESS=HUCKEL $END                                                       
 INPUT CARD> $SYSTEM MWORDS=300 $END                                                        
 INPUT CARD> $CIDET SZ=0 GROUP=C2V NCORE=2 NACT=16 NELS=10 NSTGSS=6 $END                    
 INPUT CARD> $DATA                                                                          
 INPUT CARD>N2...HF...Double-zeta basis                                                     
 INPUT CARD>Cnv   2                                                                         
 INPUT CARD>                                                                                
 INPUT CARD>N     7.0    0.0      0.0     0.0                                               
 INPUT CARD>S   7                                                                           
 INPUT CARD>  1   5909.0000000              0.0011900                                       
 INPUT CARD>  2    887.5000000              0.0090990                                       
 INPUT CARD>  3    204.7000000              0.0441450                                       
 INPUT CARD>  4     59.8400000              0.1504640                                       
 INPUT CARD>  5     20.0000000              0.3567410                                       
 INPUT CARD>  6      7.1930000              0.4465330                                       
 INPUT CARD>  7      2.6860000              0.1456030                                       
 INPUT CARD>S   2                                                                           
 INPUT CARD>  1      7.1930000             -0.1604050                                       
 INPUT CARD>  2      0.7000000              1.0582150                                       
 INPUT CARD>S   1                                                                           
 INPUT CARD>  1      0.2133000              1.0000000                                       
 INPUT CARD>P   4                                                                           
 INPUT CARD>  1     26.7900000              0.0182540                                       
 INPUT CARD>  2      5.9560000              0.1164610                                       
 INPUT CARD>  3      1.7070000              0.3901780                                       
 INPUT CARD>  4      0.5314000              0.6371020                                       
 INPUT CARD>P   1                                                                           
 INPUT CARD>  1      0.1654000              1.0000000                                       
 INPUT CARD>                                                                                
 INPUT CARD>N     7.0    0.0      0.0     4.6                                               
 INPUT CARD>S   7                                                                           
 INPUT CARD>  1   5909.0000000              0.0011900                                       
 INPUT CARD>  2    887.5000000              0.0090990                                       
 INPUT CARD>  3    204.7000000              0.0441450                                       
 INPUT CARD>  4     59.8400000              0.1504640                                       
 INPUT CARD>  5     20.0000000              0.3567410                                       
 INPUT CARD>  6      7.1930000              0.4465330                                       
 INPUT CARD>  7      2.6860000              0.1456030                                       
 INPUT CARD>S   2                                                                           
 INPUT CARD>  1      7.1930000             -0.1604050                                       
 INPUT CARD>  2      0.7000000              1.0582150                                       
 INPUT CARD>S   1                                                                           
 INPUT CARD>  1      0.2133000              1.0000000                                       
 INPUT CARD>P   4                                                                           
 INPUT CARD>  1     26.7900000              0.0182540                                       
 INPUT CARD>  2      5.9560000              0.1164610                                       
 INPUT CARD>  3      1.7070000              0.3901780                                       
 INPUT CARD>  4      0.5314000              0.6371020                                       
 INPUT CARD>P   1                                                                           
  300000000 WORDS OF MEMORY AVAILABLE


     RUN TITLE
     ---------
 N2...HF...Double-zeta basis                                                     

 THE POINT GROUP OF THE MOLECULE IS CNV     
 THE ORDER OF THE PRINCIPAL AXIS IS     2

 ATOM      ATOMIC                      COORDINATES (BOHR)
           CHARGE         X                   Y                   Z
 N           7.0     0.0000000000        0.0000000000        0.0000000000
 N           7.0     0.0000000000        0.0000000000        8.6927395435

          INTERNUCLEAR DISTANCES (ANGS.)
          ------------------------------

                1 N          2 N     

   1 N       0.0000000    4.6000000  
   2 N       4.6000000    0.0000000  

  * ... LESS THAN  3.000


     ATOMIC BASIS SET
     ----------------
 THE CONTRACTED PRIMITIVE FUNCTIONS HAVE BEEN UNNORMALIZED
 THE CONTRACTED BASIS FUNCTIONS ARE NOW NORMALIZED TO UNITY

  SHELL TYPE  PRIMITIVE        EXPONENT          CONTRACTION COEFFICIENT(S)

 N         

      1   S       1          5909.0000000    0.001189999548
      1   S       2           887.5000000    0.009098996542
      1   S       3           204.7000000    0.044144983225
      1   S       4            59.8400000    0.150463942825
      1   S       5            20.0000000    0.356740864442
      1   S       6             7.1930000    0.446532830321
      1   S       7             2.6860000    0.145602944672

      2   S       8             7.1930000   -0.160405033446
      2   S       9             0.7000000    1.058215220651

      3   S      10             0.2133000    1.000000000000

      4   P      11            26.7900000    0.018253998243
      4   P      12             5.9560000    0.116460988791
      4   P      13             1.7070000    0.390177962446
      4   P      14             0.5314000    0.637101938680

      5   P      15             0.1654000    1.000000000000

 N         

      6   S      16          5909.0000000    0.001189999548
      6   S      17           887.5000000    0.009098996542
      6   S      18           204.7000000    0.044144983225
      6   S      19            59.8400000    0.150463942825
      6   S      20            20.0000000    0.356740864442
      6   S      21             7.1930000    0.446532830321
      6   S      22             2.6860000    0.145602944672

      7   S      23             7.1930000   -0.160405033446
      7   S      24             0.7000000    1.058215220651

      8   S      25             0.2133000    1.000000000000

      9   P      26            26.7900000    0.018253998243
      9   P      27             5.9560000    0.116460988791
      9   P      28             1.7070000    0.390177962446
      9   P      29             0.5314000    0.637101938680

     10   P      30             0.1654000    1.000000000000

 TOTAL NUMBER OF BASIS SET SHELLS             =   10
 NUMBER OF CARTESIAN GAUSSIAN BASIS FUNCTIONS =   18
 NUMBER OF ELECTRONS                          =   14
 CHARGE OF MOLECULE                           =    0
 SPIN MULTIPLICITY                            =    1
 NUMBER OF OCCUPIED ORBITALS (ALPHA)          =    7
 NUMBER OF OCCUPIED ORBITALS (BETA )          =    7
 TOTAL NUMBER OF ATOMS                        =    2
 THE NUCLEAR REPULSION ENERGY IS        5.6368880897

 THIS MOLECULE IS RECOGNIZED AS BEING LINEAR,
 ORBITAL LZ DEGENERACY TOLERANCE ETOLLZ= 1.00E-06

     $CONTRL OPTIONS
     ---------------
 SCFTYP=RHF          RUNTYP=ENERGY       EXETYP=RUN     
 MPLEVL=       0     CITYP =ALDET        CCTYP =NONE         VBTYP =NONE    
 DFTTYP=NONE         TDDFT =NONE    
 MULT  =       1     ICHARG=       0     NZVAR =       0     COORD =UNIQUE  
 PP    =NONE         RELWFN=NONE         LOCAL =NONE         NUMGRD=       F
 ISPHER=      -1     NOSYM =       0     MAXIT =      30     UNITS =ANGS    
 PLTORB=       F     MOLPLT=       F     AIMPAC=       F     FRIEND=        
 NPRINT=       7     IREST =       0     GEOM  =INPUT   
 NORMF =       0     NORMP =       0     ITOL  =      20     ICUT  =       9
 INTTYP=BEST         GRDTYP=BEST         QMTTOL= 1.0E-06

     $SYSTEM OPTIONS
     ---------------
  REPLICATED MEMORY=   300000000 WORDS (ON EVERY NODE).
 DISTRIBUTED MEMDDI=           0 MILLION WORDS IN AGGREGATE,
 MEMDDI DISTRIBUTED OVER  12 PROCESSORS IS           0 WORDS/PROCESSOR.
 TOTAL MEMORY REQUESTED ON EACH PROCESSOR=   300000000 WORDS.
 TIMLIM=      525600.00 MINUTES, OR     365.0 DAYS.
 PARALL= T  BALTYP=  DLB     KDIAG=    0  COREFL= F
 MXSEQ2=     300 MXSEQ3=     150  mem10=         0

          ----------------
          PROPERTIES INPUT
          ----------------

     MOMENTS            FIELD           POTENTIAL          DENSITY
 IEMOM =       1   IEFLD =       0   IEPOT =       0   IEDEN =       0
 WHERE =COMASS     WHERE =NUCLEI     WHERE =NUCLEI     WHERE =NUCLEI  
 OUTPUT=BOTH       OUTPUT=BOTH       OUTPUT=BOTH       OUTPUT=BOTH    
 IEMINT=       0   IEFINT=       0                     IEDINT=       0
                                                       MORB  =       0
          EXTRAPOLATION IN EFFECT
          SOSCF IN EFFECT
 ORBITAL PRINTING OPTION: NPREO=     1    18     2     1

     -------------------------------
     INTEGRAL TRANSFORMATION OPTIONS
     -------------------------------
     NWORD  =            0
     CUTOFF = 1.0E-09     MPTRAN =       0
     DIRTRF =       F     AOINTS =DUP     

          ----------------------
          INTEGRAL INPUT OPTIONS
          ----------------------
 NOPK  =       1 NORDER=       0 SCHWRZ=       F

     ------------------------------------------
     THE POINT GROUP IS CNV, NAXIS= 2, ORDER= 4
     ------------------------------------------

     DIMENSIONS OF THE SYMMETRY SUBSPACES ARE
 A1  =   10     A2  =    0     B1  =    4     B2  =    4

 ..... DONE SETTING UP THE RUN .....
 CPU     0: STEP CPU TIME=     0.02 TOTAL CPU TIME=        0.0 (    0.0 MIN)
 TOTAL WALL CLOCK TIME=        0.2 SECONDS, CPU UTILIZATION IS   9.09%

          ********************
          1 ELECTRON INTEGRALS
          ********************
 ...... END OF ONE-ELECTRON INTEGRALS ......
 CPU     0: STEP CPU TIME=     0.00 TOTAL CPU TIME=        0.0 (    0.0 MIN)
 TOTAL WALL CLOCK TIME=        0.2 SECONDS, CPU UTILIZATION IS   8.00%

          -------------
          GUESS OPTIONS
          -------------
          GUESS =HUCKEL            NORB  =       0          NORDER=       0
          MIX   =       F          PRTMO =       F          PUNMO =       F
          TOLZ  = 1.0E-08          TOLE  = 1.0E-05
          SYMDEN=       F          PURIFY=       F

 INITIAL GUESS ORBITALS GENERATED BY HUCKEL   ROUTINE.
 HUCKEL GUESS REQUIRES      4352 WORDS.

 SYMMETRIES FOR INITIAL GUESS ORBITALS FOLLOW.   BOTH SET(S).
     7 ORBITALS ARE OCCUPIED (    2 CORE ORBITALS).
     3=A1       4=A1       5=A1       6=B1       7=B2       8=B1       9=B2  
    10=A1      11=A1      12=A1      13=A1      14=A1      15=B1      16=B1  
    17=B2  
 ...... END OF INITIAL ORBITAL SELECTION ......
 CPU     0: STEP CPU TIME=     0.00 TOTAL CPU TIME=        0.0 (    0.0 MIN)
 TOTAL WALL CLOCK TIME=        0.2 SECONDS, CPU UTILIZATION IS   8.00%

                    ----------------------
                    AO INTEGRAL TECHNOLOGY
                    ----------------------
     S,P,L SHELL ROTATED AXIS INTEGRALS, REPROGRAMMED BY
        KAZUYA ISHIMURA (IMS) AND JOSE SIERRA (SYNSTAR).
     S,P,D,L SHELL ROTATED AXIS INTEGRALS PROGRAMMED BY
        KAZUYA ISHIMURA (INSTITUTE FOR MOLECULAR SCIENCE).
     S,P,D,F,G SHELL TO TOTAL QUARTET ANGULAR MOMENTUM SUM 5,
        ERIC PROGRAM BY GRAHAM FLETCHER (ELORET AND NASA ADVANCED
        SUPERCOMPUTING DIVISION, AMES RESEARCH CENTER).
     S,P,D,F,G,L SHELL GENERAL RYS QUADRATURE PROGRAMMED BY
        MICHEL DUPUIS (PACIFIC NORTHWEST NATIONAL LABORATORY).

          --------------------
          2 ELECTRON INTEGRALS
          --------------------

 THE -PK- OPTION IS OFF, THE INTEGRALS ARE NOT IN SUPERMATRIX FORM.
 STORING   15000 INTEGRALS/RECORD ON DISK, USING 12 BYTES/INTEGRAL.
 TWO ELECTRON INTEGRAL EVALUATION REQUIRES   89411 WORDS OF MEMORY.
 II,JST,KST,LST =  1  1  1  1 NREC =         1 INTLOC =    1
 II,JST,KST,LST =  2  1  1  1 NREC =         1 INTLOC =    2
 II,JST,KST,LST =  3  1  1  1 NREC =         1 INTLOC =    2
 II,JST,KST,LST =  4  1  1  1 NREC =         1 INTLOC =   16
 II,JST,KST,LST =  5  1  1  1 NREC =         1 INTLOC =   16
 II,JST,KST,LST =  6  1  1  1 NREC =         1 INTLOC =   76
 II,JST,KST,LST =  7  1  1  1 NREC =         1 INTLOC =   76
 II,JST,KST,LST =  8  1  1  1 NREC =         1 INTLOC =  123
 II,JST,KST,LST =  9  1  1  1 NREC =         1 INTLOC =  224
 II,JST,KST,LST = 10  1  1  1 NREC =         1 INTLOC =  361
 TOTAL NUMBER OF NONZERO TWO-ELECTRON INTEGRALS =                2797
         12 INTEGRAL RECORDS WERE STORED ON DISK FILE  8.
  ...... END OF TWO-ELECTRON INTEGRALS .....
 CPU     0: STEP CPU TIME=     0.01 TOTAL CPU TIME=        0.0 (    0.0 MIN)
 TOTAL WALL CLOCK TIME=        0.3 SECONDS, CPU UTILIZATION IS  11.54%

          --------------------------
                 RHF SCF CALCULATION
          --------------------------

     NUCLEAR ENERGY =         5.6368880897
     MAXIT =   30     NPUNCH=    2
     EXTRAP=T  DAMP=F  SHIFT=F  RSTRCT=F  DIIS=F  DEM=F  SOSCF=T
     DENSITY MATRIX CONV=  1.00E-06
     SOSCF WILL OPTIMIZE      77 ORBITAL ROTATIONS, SOGTOL=   0.250
     MEMORY REQUIRED FOR RHF ITERS=     32828 WORDS.

 ITER EX DEM     TOTAL ENERGY        E CHANGE  DENSITY CHANGE     ORB. GRAD
   1  0  0     -107.6642557202  -107.6642557202   0.264977803   0.000000000
          ---------------START SECOND ORDER SCF---------------
   2  1  0     -107.8421221081    -0.1778663879   0.114216525   0.061577483
   3  2  0     -107.8574826136    -0.0153605055   0.025497220   0.024116801
   4  3  0     -107.8605409581    -0.0030583444   0.002656795   0.001255251
   5  4  0     -107.8605507435    -0.0000097854   0.000877689   0.000360109
   6  5  0     -107.8605511939    -0.0000004504   0.000012416   0.000010441
   7  6  0     -107.8605511946    -0.0000000007   0.000003961   0.000001924
   8  7  0     -107.8605511946    -0.0000000000   0.000000566   0.000000307
   9  8  0     -107.8605511946    -0.0000000000   0.000000048   0.000000026

          -----------------
          DENSITY CONVERGED
          -----------------
     TIME TO FORM FOCK OPERATORS=       0.0 SECONDS (       0.0 SEC/ITER)
     TIME TO SOLVE SCF EQUATIONS=       0.0 SECONDS (       0.0 SEC/ITER)

 FINAL RHF ENERGY IS     -107.8605511946 AFTER   9 ITERATIONS

 LZ VALUE ANALYSIS FOR THE MOS
 ----------------------------------------
 MO     1 (    1) HAS LZ(WEIGHT)= 0.00(100.0%) 
 MO     2 (    2) HAS LZ(WEIGHT)= 0.00(100.0%) 
 MO     3 (    3) HAS LZ(WEIGHT)= 0.00(100.0%) 
 MO     4 (    4) HAS LZ(WEIGHT)= 0.00(100.0%) 
 MO     5 (    5) HAS LZ(WEIGHT)= 0.00(100.0%) 
 MO     6 (    6) HAS LZ(WEIGHT)=-1.00( 50.0%)  1.00( 50.0%) 
 MO     7 (    6) HAS LZ(WEIGHT)=-1.00( 50.0%)  1.00( 50.0%) 
 MO     8 (    7) HAS LZ(WEIGHT)=-1.00( 50.0%)  1.00( 50.0%) 
 MO     9 (    7) HAS LZ(WEIGHT)=-1.00( 50.0%)  1.00( 50.0%) 
 MO    10 (    8) HAS LZ(WEIGHT)= 0.00(100.0%) 
 MO    11 (    9) HAS LZ(WEIGHT)= 0.00(100.0%) 
 MO    12 (   10) HAS LZ(WEIGHT)=-1.00( 50.0%)  1.00( 50.0%) 
 MO    13 (   10) HAS LZ(WEIGHT)=-1.00( 50.0%)  1.00( 50.0%) 
 MO    14 (   11) HAS LZ(WEIGHT)=-1.00( 50.0%)  1.00( 50.0%) 
 MO    15 (   11) HAS LZ(WEIGHT)=-1.00( 50.0%)  1.00( 50.0%) 
 MO    16 (   12) HAS LZ(WEIGHT)= 0.00(100.0%) 
 MO    17 (   13) HAS LZ(WEIGHT)= 0.00(100.0%) 
 MO    18 (   14) HAS LZ(WEIGHT)= 0.00(100.0%) 

          ------------
          EIGENVECTORS
          ------------

                      1          2          3          4          5
                  -15.8164   -15.8164    -1.0271    -1.0230    -0.3120
                     A1         A1         A1         A1         A1  
    1  N  1  S    0.706969  -0.706971  -0.173314   0.173473   0.001853
    2  N  1  S   -0.000098   0.000092   0.408937  -0.410972  -0.010276
    3  N  1  S    0.000900  -0.000878   0.359627  -0.357645   0.004393
    4  N  1  X    0.000000   0.000000   0.000000   0.000000   0.000000
    5  N  1  Y    0.000000   0.000000   0.000000   0.000000   0.000000
    6  N  1  Z    0.000065  -0.000037   0.002606   0.004788   0.497364
    7  N  1  X    0.000000   0.000000   0.000000   0.000000   0.000000
    8  N  1  Y    0.000000   0.000000   0.000000   0.000000   0.000000
    9  N  1  Z   -0.000013   0.000031   0.002948   0.003369   0.302640
   10  N  2  S    0.706969   0.706971  -0.173314  -0.173473   0.001853
   11  N  2  S   -0.000098  -0.000092   0.408937   0.410972  -0.010276
   12  N  2  S    0.000900   0.000878   0.359627   0.357645   0.004393
   13  N  2  X    0.000000   0.000000   0.000000   0.000000   0.000000
   14  N  2  Y    0.000000   0.000000   0.000000   0.000000   0.000000
   15  N  2  Z   -0.000065  -0.000037  -0.002606   0.004788  -0.497364
   16  N  2  X    0.000000   0.000000   0.000000   0.000000   0.000000
   17  N  2  Y    0.000000   0.000000   0.000000   0.000000   0.000000
   18  N  2  Z    0.000013   0.000031  -0.002948   0.003369  -0.302640

                      6          7          8          9         10
                   -0.3084    -0.3084    -0.1946    -0.1946    -0.1881
                     B1         B2         B1         B2         A1  
    1  N  1  S    0.000000   0.000000   0.000000   0.000000  -0.002247
    2  N  1  S    0.000000   0.000000   0.000000   0.000000   0.008805
    3  N  1  S    0.000000   0.000000   0.000000   0.000000  -0.000436
    4  N  1  X    0.504218   0.000000   0.504537   0.000000   0.000000
    5  N  1  Y    0.000000   0.504218   0.000000   0.504537   0.000000
    6  N  1  Z    0.000000   0.000000   0.000000   0.000000   0.507595
    7  N  1  X    0.296482   0.000000   0.296426   0.000000   0.000000
    8  N  1  Y    0.000000   0.296482   0.000000   0.296426   0.000000
    9  N  1  Z    0.000000   0.000000   0.000000   0.000000   0.294476
   10  N  2  S    0.000000   0.000000   0.000000   0.000000   0.002247
   11  N  2  S    0.000000   0.000000   0.000000   0.000000  -0.008805
   12  N  2  S    0.000000   0.000000   0.000000   0.000000   0.000436
   13  N  2  X    0.504218   0.000000  -0.504537   0.000000   0.000000
   14  N  2  Y    0.000000   0.504218   0.000000  -0.504537   0.000000
   15  N  2  Z    0.000000   0.000000   0.000000   0.000000   0.507595
   16  N  2  X    0.296482   0.000000  -0.296426   0.000000   0.000000
   17  N  2  Y    0.000000   0.296482   0.000000  -0.296426   0.000000
   18  N  2  Z    0.000000   0.000000   0.000000   0.000000   0.294476

                     11         12         13         14         15
                    0.6184     0.6406     0.6406     0.6465     0.6465
                     A1         B1         B2         B1         B2  
    1  N  1  S    0.003328   0.000000   0.000000   0.000000   0.000000
    2  N  1  S   -0.034835   0.000000   0.000000   0.000000   0.000000
    3  N  1  S    0.032211   0.000000   0.000000   0.000000   0.000000
    4  N  1  X    0.000000  -0.661775   0.000000  -0.662262   0.000000
    5  N  1  Y    0.000000   0.000000  -0.661775   0.000000  -0.662262
    6  N  1  Z   -0.663124   0.000000   0.000000   0.000000   0.000000
    7  N  1  X    0.000000   0.776496   0.000000   0.778860   0.000000
    8  N  1  Y    0.000000   0.000000   0.776496   0.000000   0.778860
    9  N  1  Z    0.761626   0.000000   0.000000   0.000000   0.000000
   10  N  2  S    0.003328   0.000000   0.000000   0.000000   0.000000
   11  N  2  S   -0.034835   0.000000   0.000000   0.000000   0.000000
   12  N  2  S    0.032211   0.000000   0.000000   0.000000   0.000000
   13  N  2  X    0.000000  -0.661775   0.000000   0.662262   0.000000
   14  N  2  Y    0.000000   0.000000  -0.661775   0.000000   0.662262
   15  N  2  Z    0.663124   0.000000   0.000000   0.000000   0.000000
   16  N  2  X    0.000000   0.776496   0.000000  -0.778860   0.000000
   17  N  2  Y    0.000000   0.000000   0.776496   0.000000  -0.778860
   18  N  2  Z   -0.761626   0.000000   0.000000   0.000000   0.000000

                     16         17         18
                    0.6721     0.9046     0.9102
                     A1         A1         A1  
    1  N  1  S   -0.003621  -0.091184   0.090851
    2  N  1  S    0.040332   1.109568  -1.109288
    3  N  1  S   -0.038195  -1.102991   1.104477
    4  N  1  X    0.000000   0.000000   0.000000
    5  N  1  Y    0.000000   0.000000   0.000000
    6  N  1  Z   -0.663263  -0.019373  -0.024196
    7  N  1  X    0.000000   0.000000   0.000000
    8  N  1  Y    0.000000   0.000000   0.000000
    9  N  1  Z    0.791301   0.029832   0.034332
   10  N  2  S    0.003621  -0.091184  -0.090851
   11  N  2  S   -0.040332   1.109568   1.109288
   12  N  2  S    0.038195  -1.102991  -1.104477
   13  N  2  X    0.000000   0.000000   0.000000
   14  N  2  Y    0.000000   0.000000   0.000000
   15  N  2  Z   -0.663263   0.019373  -0.024196
   16  N  2  X    0.000000   0.000000   0.000000
   17  N  2  Y    0.000000   0.000000   0.000000
   18  N  2  Z    0.791301  -0.029832   0.034332
 ...... END OF RHF CALCULATION ......
 CPU     0: STEP CPU TIME=     0.00 TOTAL CPU TIME=        0.0 (    0.0 MIN)
 TOTAL WALL CLOCK TIME=        0.3 SECONDS, CPU UTILIZATION IS  11.11%

     ----------------------------------------------------------------
     PROPERTY VALUES FOR THE RHF   SELF-CONSISTENT FIELD WAVEFUNCTION
     ----------------------------------------------------------------

          -----------------
          ENERGY COMPONENTS
          -----------------

         WAVEFUNCTION NORMALIZATION =       1.0000000000

                ONE ELECTRON ENERGY =    -157.7715806327
                TWO ELECTRON ENERGY =      44.2741413483
           NUCLEAR REPULSION ENERGY =       5.6368880897
                                      ------------------
                       TOTAL ENERGY =    -107.8605511946

 ELECTRON-ELECTRON POTENTIAL ENERGY =      44.2741413483
  NUCLEUS-ELECTRON POTENTIAL ENERGY =    -265.3087966640
   NUCLEUS-NUCLEUS POTENTIAL ENERGY =       5.6368880897
                                      ------------------
             TOTAL POTENTIAL ENERGY =    -215.3977672260
               TOTAL KINETIC ENERGY =     107.5372160313
                 VIRIAL RATIO (V/T) =       2.0030067280

  ...... PI ENERGY ANALYSIS ......

 ENERGY ANALYSIS:
            FOCK ENERGY=    -69.2232975089
          BARE H ENERGY=   -157.7715806327
     ELECTRONIC ENERGY =   -113.4974390708
         KINETIC ENERGY=    107.5372160313
          N-N REPULSION=      5.6368880897
           TOTAL ENERGY=   -107.8605509811
        SIGMA PART(1+2)=   -102.1425710233
               (K,V1,2)=    101.0880727648   -237.3836344219     34.1529906339
           PI PART(1+2)=    -11.3548680475
               (K,V1,2)=      6.4491432666    -27.9251622421     10.1211509281
  SIGMA SKELETON, ERROR=    -96.5056829336     -0.0000000000
             MIXED PART= 0.00000E+00 0.00000E+00 0.00000E+00 0.00000E+00
 ...... END OF PI ENERGY ANALYSIS ......

          ---------------------------------------
          MULLIKEN AND LOWDIN POPULATION ANALYSES
          ---------------------------------------

               ----- POPULATIONS IN EACH AO -----
                             MULLIKEN      LOWDIN
              1  N  1  S      2.00012     1.99714
              2  N  1  S      1.06380     1.03423
              3  N  1  S      0.93602     0.96857
              4  N  1  X      0.66616     0.64109
              5  N  1  Y      0.66616     0.64109
              6  N  1  Z      0.65377     0.62964
              7  N  1  X      0.33384     0.35891
              8  N  1  Y      0.33384     0.35891
              9  N  1  Z      0.34629     0.37043
             10  N  2  S      2.00012     1.99714
             11  N  2  S      1.06380     1.03423
             12  N  2  S      0.93602     0.96857
             13  N  2  X      0.66616     0.64109
             14  N  2  Y      0.66616     0.64109
             15  N  2  Z      0.65377     0.62964
             16  N  2  X      0.33384     0.35891
             17  N  2  Y      0.33384     0.35891
             18  N  2  Z      0.34629     0.37043

          ----- MULLIKEN ATOMIC OVERLAP POPULATIONS -----
          (OFF-DIAGONAL ELEMENTS NEED TO BE MULTIPLIED BY 2)

             1           2

    1    6.9948122
    2    0.0051878   6.9948122

          TOTAL MULLIKEN AND LOWDIN ATOMIC POPULATIONS
       ATOM         MULL.POP.    CHARGE          LOW.POP.     CHARGE
    1 N             7.000000    0.000000         7.000000    0.000000
    2 N             7.000000   -0.000000         7.000000   -0.000000

          ---------------------
          ELECTROSTATIC MOMENTS
          ---------------------

 POINT   1           X           Y           Z (BOHR)    CHARGE
                 0.000000    0.000000    4.346370        0.00 (A.U.)
         DX          DY          DZ         /D/  (DEBYE)
     0.000000    0.000000   -0.000000    0.000000
 ...... END OF PROPERTY EVALUATION ......
 CPU     0: STEP CPU TIME=     0.01 TOTAL CPU TIME=        0.0 (    0.0 MIN)
 TOTAL WALL CLOCK TIME=        0.3 SECONDS, CPU UTILIZATION IS  12.90%

 DETERMINANT CI OPTIONS   NRNFG   NPFLG
 INTEGRAL TRANSFORMATION    1       0
 DIAGONALIZE HAMILTONIAN    1       0
 FORM 1E- DENSITY MATRIX    1       0
 FORM 2E- DENSITY MATRIX    0       0

     --------------------------------------------------
          AMES LABORATORY DETERMINANTAL FULL CI
     PROGRAM WRITTEN BY JOE IVANIC AND KLAUS RUEDENBERG
     --------------------------------------------------

 THE POINT GROUP                  =   C2V     
 THE STATE SYMMETRY               =   A1      
 NUMBER OF CORE ORBITALS          =    2
 NUMBER OF ACTIVE ORBITALS        =   16
 NUMBER OF ALPHA ELECTRONS        =    7 (   5 ACTIVE)
 NUMBER OF BETA ELECTRONS         =    7 (   5 ACTIVE)
 NUMBER OF OCCUPIED ORBITALS      =   18
 NUMBER OF CI STATES REQUESTED    =    1
 NUMBER OF CI STARTING VECTORS    =    6
 MAX. NO. OF CI EXPANSION VECTORS =   12
 SIZE OF INITIAL CI GUESS MATRIX  =  300
 MAX. NO. OF CI ITERS/STATE       =  100
 CI DIAGONALIZATION CRITERION     = 1.00E-06
 CI PROPERTIES WILL BE FOUND FOR ROOT NUMBER   1
 1E- DENSITY MATRIX OPTIONS ARE 1

 CORRELATION ENERGY ANALYSIS      =    F

 SYMMETRIES FOR THE   2 CORE,  16 ACTIVE ARE

     CORE= A1    A1  

   ACTIVE= A1    A1    A1    B1    B2    B1    B2    A1    A1    B1  
           B2    B1    B2    A1    A1    A1  

     --------------------------------------------
     PARTIAL TWO ELECTRON INTEGRAL TRANSFORMATION
     --------------------------------------------

 NUMBER OF CORE MOLECULAR ORBITALS     =    2
 NUMBER OF OCCUPIED MOLECULAR ORBITALS =   18
 TOTAL NUMBER OF MOLECULAR ORBITALS    =   18
 TOTAL NUMBER OF ATOMIC ORBITALS       =   18
 THRESHOLD FOR KEEPING TRANSFORMED 2E- INTEGRALS = 1.000E-09

 -------------------------------     ------------------------------
 DISTRIBUTED DATA TRANSFORMATION     PROGRAM WRITTEN BY G. FLETCHER
 -------------------------------     ------------------------------

 THE DISTRIBUTED MEMORY REQUIRED FOR THIS STEP IS MEMDDI=         1 MWORDS
 CREATING DISTRIBUTED STORAGE FOR [OCC OCC|OCC OCC] INTEGRALS
 DDI: Creating Array [0] - 171 x 171 = 29241 words.
 CREATING WORKSPACE OF SIZE VVOO
 DDI: Creating Array [1] - 171 x 171 = 29241 words.
 FOR   12 PROCESSORS, THE REPLICATED MEMORY NEEDED IS       58507 WORDS.

      DIRECT 4-INDEX TRANSFORMATION 
      SCHWARZ INEQUALITY TEST SKIPPED          0 INTEGRAL BLOCKS
 ----- FROZEN CORE ENERGY =       -92.2250732140
 ... END OF INTEGRAL TRANSFORMATION ...
 CPU     0: STEP CPU TIME=     0.01 TOTAL CPU TIME=        0.0 (    0.0 MIN)
 TOTAL WALL CLOCK TIME=        0.3 SECONDS, CPU UTILIZATION IS  14.29%

     --------------------------------------------------
          AMES LABORATORY DETERMINANTAL FULL CI
     PROGRAM WRITTEN BY JOE IVANIC AND KLAUS RUEDENBERG
     --------------------------------------------------

 THE NUMBER OF DETERMINANTS HAVING SPACE SYMMETRY A1 
 IN POINT GROUP C2V  WITH SZ=  0.0 IS        4777056
 THE DETERMINANT FULL CI REQUIRES       119865995 WORDS
 INITIAL CI VECTOR GUESS TIME  :          1.2
 INITIAL FULL CI ITERATION TIME:          5.6

 ITERATION      ENERGY           GRADIENT
     0     -108.7402648475     0.46081611
     1     -108.8421025345     0.18762777
     2     -108.8547261943     0.07098848
     3     -108.8563374282     0.03099121
     4     -108.8566420462     0.01551147
     5     -108.8567157298     0.00644915
     6     -108.8567272535     0.00228677
     7     -108.8567285316     0.00138095
     8     -108.8567289840     0.00104442
     9     -108.8567295441     0.00071932
    10     -108.8567297070     0.00043913
    11     -108.8567297578     0.00027233
    12     -108.8567297748     0.00015539
    13     -108.8567297788     0.00009258
    14     -108.8567297810     0.00005708
    15     -108.8567297820     0.00003988
    16     -108.8567297824     0.00002729
    17     -108.8567297827     0.00002005
    18     -108.8567297829     0.00001696
    19     -108.8567297829     0.00001157
    20     -108.8567297829     0.00000825
    21     -108.8567297830     0.00000680
    22     -108.8567297830     0.00000499
    23     -108.8567297830     0.00000279
    24     -108.8567297830     0.00000254
    25     -108.8567297830     0.00000248
    26     -108.8567297830     0.00000352
    27     -108.8567297830     0.00000422
    28     -108.8567297830     0.00000378
    29     -108.8567297830     0.00000567
    30     -108.8567297830     0.00000835
    31     -108.8567297830     0.00000777
    32     -108.8567297831     0.00000883
    33     -108.8567297832     0.00002122
    34     -108.8567297835     0.00004325
    35     -108.8567297875     0.00015946
    36     -108.8567298321     0.00053094
    37     -108.8567316681     0.00264485
    38     -108.8567336129     0.00183936
    39     -108.8567344885     0.00123853
    40     -108.8567348189     0.00064388
    41     -108.8567349229     0.00041532
    42     -108.8567349604     0.00032101
    43     -108.8567349761     0.00018838
    44     -108.8567349877     0.00013367
    45     -108.8567349950     0.00011526
    46     -108.8567349980     0.00006790
    47     -108.8567349991     0.00004091
    48     -108.8567349995     0.00002682
    49     -108.8567349997     0.00001886
    50     -108.8567349998     0.00001383
    51     -108.8567349999     0.00001033
    52     -108.8567349999     0.00000531
    53     -108.8567349999     0.00000364
    54     -108.8567349999     0.00000356
    55     -108.8567349999     0.00000203
    56     -108.8567349999     0.00000143
    57     -108.8567349999     0.00000122
    58     -108.8567349999     0.00000072

 CONVERGED STATE    1 ENERGY=     -108.8567349999 IN   58 ITERS

 ALL STATES CONVERGED.

 CI EIGENVECTORS WILL BE LABELED IN GROUP=C2V     
 PRINTING CI COEFFICIENTS LARGER THAN  0.050000

 STATE   1  ENERGY=      -108.8567349999  S=  0.00  SZ=  0.00  SPACE SYM=A1  

      ALPHA       |      BETA        | COEFFICIENT
------------------|------------------|------------
 1111100000000000 | 1111100000000000 |   0.2417531
 1110110000000000 | 1110110000000000 |  -0.2413824
 1111001000000000 | 1111001000000000 |  -0.2413824
 1110011000000000 | 1110011000000000 |   0.2410128
 1101100100000000 | 1101100100000000 |  -0.2387477
 1101001100000000 | 1101001100000000 |   0.2383854
 1100110100000000 | 1100110100000000 |   0.2383854
 1100011100000000 | 1100011100000000 |  -0.2380241
 1111010000000000 | 1110101000000000 |   0.1609211
 1110101000000000 | 1111010000000000 |   0.1609211
 1111000100000000 | 1101101000000000 |  -0.1600267
 1101101000000000 | 1111000100000000 |  -0.1600267
 1101110000000000 | 1110100100000000 |   0.1600267
 1110100100000000 | 1101110000000000 |   0.1600267
 1110010100000000 | 1100111000000000 |  -0.1597827
 1100111000000000 | 1110010100000000 |  -0.1597827
 1101011000000000 | 1110001100000000 |   0.1597827
 1110001100000000 | 1101011000000000 |   0.1597827
 1101010100000000 | 1100101100000000 |  -0.1589232
 1100101100000000 | 1101010100000000 |  -0.1589232
 1110110000000000 | 1111001000000000 |   0.0804608
 1111001000000000 | 1110110000000000 |   0.0804608
 1111100000000000 | 1110011000000000 |   0.0804602
 1110011000000000 | 1111100000000000 |   0.0804602
 1110110000000000 | 1101100100000000 |   0.0800166
 1101100100000000 | 1110110000000000 |   0.0800166
 1101100100000000 | 1111001000000000 |  -0.0800166
 1111001000000000 | 1101100100000000 |  -0.0800166
 1111100000000000 | 1100110100000000 |  -0.0800100
 1100110100000000 | 1111100000000000 |  -0.0800100
 1101001100000000 | 1111100000000000 |   0.0800100
 1111100000000000 | 1101001100000000 |   0.0800100
 1101001100000000 | 1110011000000000 |   0.0798946
 1110011000000000 | 1101001100000000 |   0.0798946
 1110011000000000 | 1100110100000000 |  -0.0798946
 1100110100000000 | 1110011000000000 |  -0.0798946
 1100011100000000 | 1111001000000000 |  -0.0798880
 1111001000000000 | 1100011100000000 |  -0.0798880
 1100011100000000 | 1110110000000000 |   0.0798880
 1110110000000000 | 1100011100000000 |   0.0798880
 1101001100000000 | 1100110100000000 |  -0.0794618
 1100110100000000 | 1101001100000000 |  -0.0794618
 1101100100000000 | 1100011100000000 |  -0.0794612
 1100011100000000 | 1101100100000000 |  -0.0794612
 ..... DONE WITH DETERMINANT CI COMPUTATION .....
 CPU     0: STEP CPU TIME=   149.13 TOTAL CPU TIME=      149.2 (    2.5 MIN)
 TOTAL WALL CLOCK TIME=      194.7 SECONDS, CPU UTILIZATION IS  76.63%

     ---------------------------
     ONE PARTICLE DENSITY MATRIX
     ---------------------------

 DENSITY MATRIX WILL BE SAVED FOR   1-TH STATE WITH S= 0.00

 CI EIGENSTATE   1 TOTAL ENERGY =     -108.8567349999

          NATURAL ORBITALS IN ATOMIC ORBITAL BASIS
          ----------------------------------------

                      1          2          3          4          5
                    2.0000     2.0000     1.9850     1.9849     1.0052
                     A1         A1         A1         A1         A1  
    1  N  1  S    0.706969   0.706971  -0.171033   0.171065   0.000127
    2  N  1  S   -0.000098  -0.000092   0.381656  -0.382057  -0.000938
    3  N  1  S    0.000900   0.000878   0.386537  -0.386219   0.000356
    4  N  1  X    0.000000   0.000000   0.000000   0.000000   0.000000
    5  N  1  Y    0.000000   0.000000   0.000000   0.000000   0.000000
    6  N  1  Z    0.000065   0.000037  -0.000414  -0.000408   0.557771
    7  N  1  X    0.000000   0.000000   0.000000   0.000000   0.000000
    8  N  1  Y    0.000000   0.000000   0.000000   0.000000   0.000000
    9  N  1  Z   -0.000013  -0.000031   0.000615   0.000615   0.229385
   10  N  2  S    0.706969  -0.706971  -0.171033  -0.171065   0.000127
   11  N  2  S   -0.000098   0.000092   0.381656   0.382057  -0.000938
   12  N  2  S    0.000900  -0.000878   0.386537   0.386219   0.000356
   13  N  2  X    0.000000   0.000000   0.000000   0.000000   0.000000
   14  N  2  Y    0.000000   0.000000   0.000000   0.000000   0.000000
   15  N  2  Z   -0.000065   0.000037   0.000414  -0.000408  -0.557771
   16  N  2  X    0.000000   0.000000   0.000000   0.000000   0.000000
   17  N  2  Y    0.000000   0.000000   0.000000   0.000000   0.000000
   18  N  2  Z    0.000013  -0.000031  -0.000615   0.000615  -0.229385

                      6          7          8          9         10
                    0.9965     0.9965     0.9945     0.9945     0.9858
                     B1         B2         B1         B2         A1  
    1  N  1  S    0.000000   0.000000   0.000000   0.000000  -0.000186
    2  N  1  S    0.000000   0.000000   0.000000   0.000000   0.000893
    3  N  1  S    0.000000   0.000000   0.000000   0.000000  -0.000326
    4  N  1  X    0.559755   0.000000   0.560251   0.000000   0.000000
    5  N  1  Y    0.000000   0.559755   0.000000   0.560251   0.000000
    6  N  1  Z    0.000000   0.000000   0.000000   0.000000   0.562179
    7  N  1  X    0.227966   0.000000   0.227528   0.000000   0.000000
    8  N  1  Y    0.000000   0.227966   0.000000   0.227528   0.000000
    9  N  1  Z    0.000000   0.000000   0.000000   0.000000   0.226140
   10  N  2  S    0.000000   0.000000   0.000000   0.000000   0.000186
   11  N  2  S    0.000000   0.000000   0.000000   0.000000  -0.000893
   12  N  2  S    0.000000   0.000000   0.000000   0.000000   0.000326
   13  N  2  X    0.559755   0.000000  -0.560251   0.000000   0.000000
   14  N  2  Y    0.000000   0.559755   0.000000  -0.560251   0.000000
   15  N  2  Z    0.000000   0.000000   0.000000   0.000000   0.562179
   16  N  2  X    0.227966   0.000000  -0.227528   0.000000   0.000000
   17  N  2  Y    0.000000   0.227966   0.000000  -0.227528   0.000000
   18  N  2  Z    0.000000   0.000000   0.000000   0.000000   0.226140

                     11         12         13         14         15
                    0.0109     0.0108     0.0061     0.0059     0.0059
                     A1         A1         A1         B2         B1  
    1  N  1  S   -0.095448   0.095384  -0.002008   0.000000   0.000000
    2  N  1  S    1.119470  -1.120035   0.028556   0.000000   0.000000
    3  N  1  S   -1.093919   1.095129  -0.030142   0.000000   0.000000
    4  N  1  X    0.000000   0.000000   0.000000   0.000000  -0.615514
    5  N  1  Y    0.000000   0.000000   0.000000  -0.615514   0.000000
    6  N  1  Z    0.014073   0.012604  -0.613335   0.000000   0.000000
    7  N  1  X    0.000000   0.000000   0.000000   0.000000   0.799299
    8  N  1  Y    0.000000   0.000000   0.000000   0.799299   0.000000
    9  N  1  Z   -0.015931  -0.014476   0.787205   0.000000   0.000000
   10  N  2  S   -0.095448  -0.095384  -0.002008   0.000000   0.000000
   11  N  2  S    1.119470   1.120035   0.028556   0.000000   0.000000
   12  N  2  S   -1.093919  -1.095129  -0.030142   0.000000   0.000000
   13  N  2  X    0.000000   0.000000   0.000000   0.000000  -0.615514
   14  N  2  Y    0.000000   0.000000   0.000000  -0.615514   0.000000
   15  N  2  Z   -0.014073   0.012604   0.613335   0.000000   0.000000
   16  N  2  X    0.000000   0.000000   0.000000   0.000000   0.799299
   17  N  2  Y    0.000000   0.000000   0.000000   0.799299   0.000000
   18  N  2  Z    0.015931  -0.014476  -0.787205   0.000000   0.000000

                     16         17         18
                    0.0059     0.0059     0.0057
                     B2         B1         A1  
    1  N  1  S    0.000000   0.000000   0.001835
    2  N  1  S    0.000000   0.000000  -0.025970
    3  N  1  S    0.000000   0.000000   0.027670
    4  N  1  X    0.000000  -0.615847   0.000000
    5  N  1  Y   -0.615847   0.000000   0.000000
    6  N  1  Z    0.000000   0.000000  -0.618040
    7  N  1  X    0.000000   0.801699   0.000000
    8  N  1  Y    0.801699   0.000000   0.000000
    9  N  1  Z    0.000000   0.000000   0.814073
   10  N  2  S    0.000000   0.000000  -0.001835
   11  N  2  S    0.000000   0.000000   0.025970
   12  N  2  S    0.000000   0.000000  -0.027670
   13  N  2  X    0.000000   0.615847   0.000000
   14  N  2  Y    0.615847   0.000000   0.000000
   15  N  2  Z    0.000000   0.000000  -0.618040
   16  N  2  X    0.000000  -0.801699   0.000000
   17  N  2  Y   -0.801699   0.000000   0.000000
   18  N  2  Z    0.000000   0.000000   0.814073
 ..... DONE WITH ONE PARTICLE DENSITY MATRIX .....
 CPU     0: STEP CPU TIME=     0.96 TOTAL CPU TIME=      150.1 (    2.5 MIN)
 TOTAL WALL CLOCK TIME=      196.1 SECONDS, CPU UTILIZATION IS  76.56%

     --------------------------------------------------------
     ALDET CI PROPERTIES...FOR THE WAVEFUNCTION OF STATE    1
               USING THE EXPECTATION VALUE DENSITY
     --------------------------------------------------------

          -----------------
          ENERGY COMPONENTS
          -----------------

         WAVEFUNCTION NORMALIZATION =       1.0000000000

                ONE ELECTRON ENERGY =    -158.9448397109
                TWO ELECTRON ENERGY =      44.4512166213
           NUCLEAR REPULSION ENERGY =       5.6368880897
                                      ------------------
                       TOTAL ENERGY =    -108.8567349999

 ELECTRON-ELECTRON POTENTIAL ENERGY =      44.4512166213
  NUCLEUS-ELECTRON POTENTIAL ENERGY =    -267.6567829536
   NUCLEUS-NUCLEUS POTENTIAL ENERGY =       5.6368880897
                                      ------------------
             TOTAL POTENTIAL ENERGY =    -217.5686782425
               TOTAL KINETIC ENERGY =     108.7119432426
                 VIRIAL RATIO (V/T) =       2.0013318845

          ---------------------------------------
          MULLIKEN AND LOWDIN POPULATION ANALYSES
          ---------------------------------------

               ----- POPULATIONS IN EACH AO -----
                             MULLIKEN      LOWDIN
              1  N  1  S      2.00011     1.99634
              2  N  1  S      0.98049     0.98290
              3  N  1  S      1.01517     1.01654
              4  N  1  X      0.75972     0.72077
              5  N  1  Y      0.75972     0.72077
              6  N  1  Z      0.75963     0.72068
              7  N  1  X      0.24169     0.28064
              8  N  1  Y      0.24169     0.28064
              9  N  1  Z      0.24179     0.28074
             10  N  2  S      2.00011     1.99634
             11  N  2  S      0.98049     0.98290
             12  N  2  S      1.01517     1.01654
             13  N  2  X      0.75972     0.72077
             14  N  2  Y      0.75972     0.72077
             15  N  2  Z      0.75963     0.72068
             16  N  2  X      0.24169     0.28064
             17  N  2  Y      0.24169     0.28064
             18  N  2  Z      0.24179     0.28074

          ----- MULLIKEN ATOMIC OVERLAP POPULATIONS -----
          (OFF-DIAGONAL ELEMENTS NEED TO BE MULTIPLIED BY 2)

             1           2

    1    6.9999312
    2    0.0000688   6.9999312

          TOTAL MULLIKEN AND LOWDIN ATOMIC POPULATIONS
       ATOM         MULL.POP.    CHARGE          LOW.POP.     CHARGE
    1 N             7.000000    0.000000         7.000000    0.000000
    2 N             7.000000    0.000000         7.000000    0.000000

          ---------------------
          ELECTROSTATIC MOMENTS
          ---------------------

 POINT   1           X           Y           Z (BOHR)    CHARGE
                 0.000000    0.000000    4.346370        0.00 (A.U.)
         DX          DY          DZ         /D/  (DEBYE)
     0.000000    0.000000   -0.000000    0.000000
 ...... END OF PROPERTY EVALUATION ......
 CPU     0: STEP CPU TIME=     0.00 TOTAL CPU TIME=      150.1 (    2.5 MIN)
 TOTAL WALL CLOCK TIME=      196.6 SECONDS, CPU UTILIZATION IS  76.38%
             119866895  WORDS OF DYNAMIC MEMORY USED
 EXECUTION OF GAMESS TERMINATED NORMALLY Thu Jan 17 19:15:07 2019
 DDI: 305760 bytes (0.3 MB / 0 MWords) used by master data server.

 ----------------------------------------
 CPU timing information for all processes
 ========================================
 0: 140.388 + 9.908 = 150.296
 1: 140.580 + 12.128 = 152.708
 2: 140.252 + 10.868 = 151.120
 3: 140.800 + 12.136 = 152.936
 4: 140.808 + 12.740 = 153.548
 5: 140.816 + 8.468 = 149.284
 6: 139.784 + 10.356 = 150.140
 7: 139.540 + 9.152 = 148.692
 8: 139.748 + 11.168 = 150.916
 9: 139.356 + 8.876 = 148.232
 10: 139.708 + 9.332 = 149.40
 11: 141.252 + 9.244 = 150.496
 12: 0.648 + 5.816 = 6.464
 13: 0.08 + 0.00 = 0.08
 14: 0.00 + 0.04 = 0.04
 15: 0.00 + 0.08 = 0.08
 16: 0.00 + 0.08 = 0.08
 17: 0.00 + 0.08 = 0.08
 18: 0.00 + 0.08 = 0.08
 19: 0.08 + 0.00 = 0.08
 20: 0.04 + 0.04 = 0.08
 21: 0.04 + 0.04 = 0.08
 22: 0.00 + 0.08 = 0.08
 23: 0.00 + 0.08 = 0.08
 ----------------------------------------
 ddikick.x: exited gracefully.
unset echo
----- accounting info -----
Files used on the master node localhost were:
-rw-rw-r-- 1 maho maho    13429 Jan 17 19:15 ./N2.SV/4.6/N2.SV.fullCI.4.6.gamess.dat
-rw------- 1 maho maho     1813 Jan 17 19:11 ./N2.SV/4.6/N2.SV.fullCI.4.6.gamess.F05
-rw-rw-r-- 1 maho maho   180016 Jan 17 19:11 ./N2.SV/4.6/N2.SV.fullCI.4.6.gamess.F08
-rw-rw-r-- 1 maho maho     1376 Jan 17 19:11 ./N2.SV/4.6/N2.SV.fullCI.4.6.gamess.F09
-rw-rw-r-- 1 maho maho  1865040 Jan 17 19:15 ./N2.SV/4.6/N2.SV.fullCI.4.6.gamess.F10
-rw-rw-r-- 1 maho maho 38216480 Jan 17 19:15 ./N2.SV/4.6/N2.SV.fullCI.4.6.gamess.F12
-rw------- 1 maho maho     1813 Jan 17 19:11 ./N2.SV/4.6/N2.SV.fullCI.4.6.gamess.inp
-rw-rw-r-- 1 maho maho    49655 Jan 17 19:15 ./N2.SV/4.6/N2.SV.fullCI.4.6.gamess.log
ls: No match.
ls: No match.
ls: No match.
Thu Jan 17 19:15:10 JST 2019
0.0u 0.0s 3:20.02 0.0% 0+0k 0+8io 0pf+0w
