----- GAMESS execution script 'rungms' -----
This job is running on host bach.ad64.riken.go.jp
under operating system Darwin at 2019年 1月17日 木曜日 17時48分53秒 JST
Available scratch disk space (Kbyte units) at beginning of the job is
Filesystem   1024-blocks       Used Available Capacity iused      ifree %iused  Mounted on
/dev/disk2s2  1953178672 1144751540 808427132    59%  984350 4293982929    0%   /Volumes/Users
GAMESS temporary binary files will be written to ./
GAMESS supplementary output files will be written to ./
Copying input file LiH.631g/2.9/LiH.631g.fullCI.2.9.gamess.inp to your run's scratch directory...
cp LiH.631g/2.9/LiH.631g.fullCI.2.9.gamess.inp .//LiH.631g/2.9/LiH.631g.fullCI.2.9.gamess.F05
unset echo
/Volumes/Users/maho/bin/gamess//ddikick.x /Volumes/Users/maho/bin/gamess//gamess.00.x LiH.631g/2.9/LiH.631g.fullCI.2.9.gamess -ddi 1 1 bach.ad64.riken.go.jp -scr ./

 Distributed Data Interface kickoff program.
 Initiating 1 compute processes on 1 nodes to run the following command:
 /Volumes/Users/maho/bin/gamess//gamess.00.x LiH.631g/2.9/LiH.631g.fullCI.2.9.gamess 

          ******************************************************
          *         GAMESS VERSION = 18 AUG 2016 (R1)          *
          *             FROM IOWA STATE UNIVERSITY             *
          * M.W.SCHMIDT, K.K.BALDRIDGE, J.A.BOATZ, S.T.ELBERT, *
          *   M.S.GORDON, J.H.JENSEN, S.KOSEKI, N.MATSUNAGA,   *
          *          K.A.NGUYEN, S.J.SU, T.L.WINDUS,           *
          *       TOGETHER WITH M.DUPUIS, J.A.MONTGOMERY       *
          *         J.COMPUT.CHEM.  14, 1347-1363(1993)        *
          **************** 64 BIT APPLE VERSION ****************

  SINCE 1993, STUDENTS AND POSTDOCS WORKING AT IOWA STATE UNIVERSITY
  AND ALSO IN THEIR VARIOUS JOBS AFTER LEAVING ISU HAVE MADE IMPORTANT
  CONTRIBUTIONS TO THE CODE:
     IVANA ADAMOVIC, CHRISTINE AIKENS, YURI ALEXEEV, POOJA ARORA,
     ANDREY ASADCHEV, ROB BELL, PRADIPTA BANDYOPADHYAY, JONATHAN BENTZ,
     BRETT BODE, KURT BRORSEN, CALEB CARLIN, GALINA CHABAN, WEI CHEN,
     CHEOL HO CHOI, PAUL DAY, ALBERT DEFUSCO, NUWAN DESILVA, TIM DUDLEY,
     DMITRI FEDOROV, GRAHAM FLETCHER, MARK FREITAG, KURT GLAESEMANN,
     DAN KEMP, GRANT MERRILL, NORIYUKI MINEZAWA, JONATHAN MULLIN,
     TAKESHI NAGATA, SEAN NEDD, HEATHER NETZLOFF, BOSILJKA NJEGIC, RYAN OLSON,
     MIKE PAK, SPENCER PRUITT, LUKE ROSKOP, JIM SHOEMAKER, LYUDMILA SLIPCHENKO,
     TONY SMITH, SAROM SOK LEANG, JIE SONG, TETSUYA TAKETSUGU, SIMON WEBB,
     PENG XU, SOOHAENG YOO, FEDERICO ZAHARIEV

  ADDITIONAL CODE HAS BEEN PROVIDED BY COLLABORATORS IN OTHER GROUPS:
     IOWA STATE UNIVERSITY:
          JOE IVANIC, AARON WEST, LAIMUTIS BYTAUTAS, KLAUS RUEDENBERG
     UNIVERSITY OF TOKYO: KIMIHIKO HIRAO, TAKAHITO NAKAJIMA,
          TAKAO TSUNEDA, MUNEAKI KAMIYA, SUSUMU YANAGISAWA,
          KIYOSHI YAGI, MAHITO CHIBA, SEIKEN TOKURA, NAOAKI KAWAKAMI
     UNIVERSITY OF AARHUS: FRANK JENSEN
     UNIVERSITY OF IOWA: VISVALDAS KAIRYS, HUI LI
     NATIONAL INST. OF STANDARDS AND TECHNOLOGY: WALT STEVENS, DAVID GARMER
     UNIVERSITY OF PISA: BENEDETTA MENNUCCI, JACOPO TOMASI
     UNIVERSITY OF MEMPHIS: HENRY KURTZ, PRAKASHAN KORAMBATH
     UNIVERSITY OF ALBERTA: TOBY ZENG, MARIUSZ KLOBUKOWSKI
     UNIVERSITY OF NEW ENGLAND: MARK SPACKMAN
     MIE UNIVERSITY: HIROAKI UMEDA
     NAT. INST. OF ADVANCED INDUSTRIAL SCIENCE AND TECHNOLOGY: KAZUO KITAURA
     MICHIGAN STATE UNIVERSITY:
          KAROL KOWALSKI, MARTA WLOCH, JEFFREY GOUR, JESSE LUTZ,
          WEI LI, PIOTR PIECUCH
     UNIVERSITY OF SILESIA: MONIKA MUSIAL, STANISLAW KUCHARSKI
     FACULTES UNIVERSITAIRES NOTRE-DAME DE LA PAIX:
          OLIVIER QUINET, BENOIT CHAMPAGNE
     UNIVERSITY OF CALIFORNIA - SANTA BARBARA: BERNARD KIRTMAN
     INSTITUTE FOR MOLECULAR SCIENCE:
          KAZUYA ISHIMURA, MICHIO KATOUDA, AND SHIGERU NAGASE
     UNIVERSITY OF NOTRE DAME: ANNA POMOGAEVA, DAN CHIPMAN
     KYUSHU UNIVERSITY:
          HARUYUKI NAKANO,
          FENG LONG GU, JACEK KORCHOWIEC, MARCIN MAKOWSKI, AND YURIKO AOKI,
          HIROTOSHI MORI AND EISAKU MIYOSHI
     PENNSYLVANIA STATE UNIVERSITY:
          TZVETELIN IORDANOV, CHET SWALINA, JONATHAN SKONE,
          SHARON HAMMES-SCHIFFER
     WASEDA UNIVERSITY:
          MASATO KOBAYASHI, TOMOKO AKAMA, TSUGUKI TOUMA,
          TAKESHI YOSHIKAWA, YASUHIRO IKABATA, JUNJI SEINO,
          YUYA NAKAJIMA, HIROMI NAKAI
     NANJING UNIVERSITY: SHUHUA LI
     UNIVERSITY OF NEBRASKA:
          PEIFENG SU, DEJUN SI, NANDUN THELLAMUREGE, YALI WANG, HUI LI
     UNIVERSITY OF ZURICH: ROBERTO PEVERATI, KIM BALDRIDGE
     N. COPERNICUS UNIVERSITY AND JACKSON STATE UNIVERSITY:
          MARIA BARYSZ
     UNIVERSITY OF COPENHAGEN: Jimmy Kromann, CASPER STEINMANN
     TOKYO INSTITUTE OF TECHNOLOGY: HIROYA NAKATA
     NAGOYA UNIVERSITY: YOSHIO NISHIMOTO, STEPHAN IRLE
     MOSCOW STATE UNIVERSITY: VLADIMIR MIRONOV

 EXECUTION OF GAMESS BEGUN Thu Jan 17 17:48:53 2019

            ECHO OF THE FIRST FEW INPUT CARDS -
 INPUT CARD> $CONTRL SCFTYP=RHF CITYP=ALDET $END                                            
 INPUT CARD> $GUESS  GUESS=HUCKEL $END                                                      
 INPUT CARD> $BASIS GBASIS=N31 NGAUSS=6 NDFUNC=1 NPFUNC=1 $END                              
 INPUT CARD> $CIDET SZ=0 GROUP=C2V NCORE=0 NACT=20 NELS=4 $END                              
 INPUT CARD> $DATA                                                                          
 INPUT CARD>LiH...HF...6-31G* basis                                                         
 INPUT CARD>Cnv   2                                                                         
 INPUT CARD>                                                                                
 INPUT CARD>Li    3.0    0.0      0.0     0.0                                               
 INPUT CARD>H     1.0    0.0      0.0     2.9                                               
 INPUT CARD> $END                                                                           
    1000000 WORDS OF MEMORY AVAILABLE

     BASIS OPTIONS
     -------------
     GBASIS=N31          IGAUSS=       6      POLAR=POPN31  
     NDFUNC=       1     NFFUNC=       0     DIFFSP=       F
     NPFUNC=       1      DIFFS=       F     BASNAM=        


     RUN TITLE
     ---------
 LiH...HF...6-31G* basis                                                         

 THE POINT GROUP OF THE MOLECULE IS CNV     
 THE ORDER OF THE PRINCIPAL AXIS IS     2

 ATOM      ATOMIC                      COORDINATES (BOHR)
           CHARGE         X                   Y                   Z
 LI          3.0     0.0000000000        0.0000000000        0.0000000000
 H           1.0     0.0000000000        0.0000000000        5.4802053644

          INTERNUCLEAR DISTANCES (ANGS.)
          ------------------------------

                1 LI         2 H     

   1 LI      0.0000000    2.9000000 *
   2 H       2.9000000 *  0.0000000  

  * ... LESS THAN  3.000


     ATOMIC BASIS SET
     ----------------
 THE CONTRACTED PRIMITIVE FUNCTIONS HAVE BEEN UNNORMALIZED
 THE CONTRACTED BASIS FUNCTIONS ARE NOW NORMALIZED TO UNITY

  SHELL TYPE  PRIMITIVE        EXPONENT          CONTRACTION COEFFICIENT(S)

 LI        

      1   S       1           642.4189150    0.002142607810
      1   S       2            96.7985153    0.016208871501
      1   S       3            22.0911212    0.077315572504
      1   S       4             6.2010702    0.245786052013
      1   S       5             1.9351177    0.470189004025
      1   S       6             0.6367358    0.345470845019

      2   L       7             2.3249184   -0.035091745735    0.008941508043
      2   L       8             0.6324304   -0.191232843103    0.141009464046
      2   L       9             0.0790534    1.083987794916    0.945363695309

      3   L      10             0.0359620    1.000000000000    1.000000000000

      4   D      11             0.2000000    1.000000000000

 H         

      5   S      12            18.7311370    0.033494604338
      5   S      13             2.8253944    0.234726953484
      5   S      14             0.6401217    0.813757326146

      6   S      15             0.1612778    1.000000000000

      7   P      16             1.1000000    1.000000000000

 TOTAL NUMBER OF BASIS SET SHELLS             =    7
 NUMBER OF CARTESIAN GAUSSIAN BASIS FUNCTIONS =   20
 NUMBER OF ELECTRONS                          =    4
 CHARGE OF MOLECULE                           =    0
 SPIN MULTIPLICITY                            =    1
 NUMBER OF OCCUPIED ORBITALS (ALPHA)          =    2
 NUMBER OF OCCUPIED ORBITALS (BETA )          =    2
 TOTAL NUMBER OF ATOMS                        =    2
 THE NUCLEAR REPULSION ENERGY IS        0.5474247406

 THIS MOLECULE IS RECOGNIZED AS BEING LINEAR,
 ORBITAL LZ DEGENERACY TOLERANCE ETOLLZ= 1.00E-06

     $CONTRL OPTIONS
     ---------------
 SCFTYP=RHF          RUNTYP=ENERGY       EXETYP=RUN     
 MPLEVL=       0     CITYP =ALDET        CCTYP =NONE         VBTYP =NONE    
 DFTTYP=NONE         TDDFT =NONE    
 MULT  =       1     ICHARG=       0     NZVAR =       0     COORD =UNIQUE  
 PP    =NONE         RELWFN=NONE         LOCAL =NONE         NUMGRD=       F
 ISPHER=      -1     NOSYM =       0     MAXIT =      30     UNITS =ANGS    
 PLTORB=       F     MOLPLT=       F     AIMPAC=       F     FRIEND=        
 NPRINT=       7     IREST =       0     GEOM  =INPUT   
 NORMF =       0     NORMP =       0     ITOL  =      20     ICUT  =       9
 INTTYP=BEST         GRDTYP=BEST         QMTTOL= 1.0E-06

     $SYSTEM OPTIONS
     ---------------
  REPLICATED MEMORY=     1000000 WORDS (ON EVERY NODE).
 DISTRIBUTED MEMDDI=           0 MILLION WORDS IN AGGREGATE,
 MEMDDI DISTRIBUTED OVER   1 PROCESSORS IS           0 WORDS/PROCESSOR.
 TOTAL MEMORY REQUESTED ON EACH PROCESSOR=     1000000 WORDS.
 TIMLIM=      525600.00 MINUTES, OR     365.0 DAYS.
 PARALL= F  BALTYP=  DLB     KDIAG=    0  COREFL= F
 MXSEQ2=     300 MXSEQ3=     150  mem10=         0

          ----------------
          PROPERTIES INPUT
          ----------------

     MOMENTS            FIELD           POTENTIAL          DENSITY
 IEMOM =       1   IEFLD =       0   IEPOT =       0   IEDEN =       0
 WHERE =COMASS     WHERE =NUCLEI     WHERE =NUCLEI     WHERE =NUCLEI  
 OUTPUT=BOTH       OUTPUT=BOTH       OUTPUT=BOTH       OUTPUT=BOTH    
 IEMINT=       0   IEFINT=       0                     IEDINT=       0
                                                       MORB  =       0
          EXTRAPOLATION IN EFFECT
          SOSCF IN EFFECT
 ORBITAL PRINTING OPTION: NPREO=     1    20     2     1

     -------------------------------
     INTEGRAL TRANSFORMATION OPTIONS
     -------------------------------
     NWORD  =            0
     CUTOFF = 1.0E-09     MPTRAN =       0
     DIRTRF =       F     AOINTS =DUP     

          ----------------------
          INTEGRAL INPUT OPTIONS
          ----------------------
 NOPK  =       1 NORDER=       0 SCHWRZ=       F

     ------------------------------------------
     THE POINT GROUP IS CNV, NAXIS= 2, ORDER= 4
     ------------------------------------------

     DIMENSIONS OF THE SYMMETRY SUBSPACES ARE
 A1  =   11     A2  =    1     B1  =    4     B2  =    4

 ..... DONE SETTING UP THE RUN .....
 STEP CPU TIME =     0.00 TOTAL CPU TIME =        0.0 (    0.0 MIN)
 TOTAL WALL CLOCK TIME=        0.0 SECONDS, CPU UTILIZATION IS   0.00%

          ********************
          1 ELECTRON INTEGRALS
          ********************
 ...... END OF ONE-ELECTRON INTEGRALS ......
 STEP CPU TIME =     0.00 TOTAL CPU TIME =        0.0 (    0.0 MIN)
 TOTAL WALL CLOCK TIME=        0.0 SECONDS, CPU UTILIZATION IS   0.00%

          -------------
          GUESS OPTIONS
          -------------
          GUESS =HUCKEL            NORB  =       0          NORDER=       0
          MIX   =       F          PRTMO =       F          PUNMO =       F
          TOLZ  = 1.0E-08          TOLE  = 1.0E-05
          SYMDEN=       F          PURIFY=       F

 INITIAL GUESS ORBITALS GENERATED BY HUCKEL   ROUTINE.
 HUCKEL GUESS REQUIRES      4469 WORDS.

 SYMMETRIES FOR INITIAL GUESS ORBITALS FOLLOW.   BOTH SET(S).
     2 ORBITALS ARE OCCUPIED (    1 CORE ORBITALS).
     2=A1       3=A1       4=A1       5=A1       6=A1       7=A1       8=A1  
     9=A1      10=A1      11=A1      12=A2  
 ...... END OF INITIAL ORBITAL SELECTION ......
 STEP CPU TIME =     0.00 TOTAL CPU TIME =        0.0 (    0.0 MIN)
 TOTAL WALL CLOCK TIME=        0.0 SECONDS, CPU UTILIZATION IS   0.00%

                    ----------------------
                    AO INTEGRAL TECHNOLOGY
                    ----------------------
     S,P,L SHELL ROTATED AXIS INTEGRALS, REPROGRAMMED BY
        KAZUYA ISHIMURA (IMS) AND JOSE SIERRA (SYNSTAR).
     S,P,D,L SHELL ROTATED AXIS INTEGRALS PROGRAMMED BY
        KAZUYA ISHIMURA (INSTITUTE FOR MOLECULAR SCIENCE).
     S,P,D,F,G SHELL TO TOTAL QUARTET ANGULAR MOMENTUM SUM 5,
        ERIC PROGRAM BY GRAHAM FLETCHER (ELORET AND NASA ADVANCED
        SUPERCOMPUTING DIVISION, AMES RESEARCH CENTER).
     S,P,D,F,G,L SHELL GENERAL RYS QUADRATURE PROGRAMMED BY
        MICHEL DUPUIS (PACIFIC NORTHWEST NATIONAL LABORATORY).

          --------------------
          2 ELECTRON INTEGRALS
          --------------------

 THE -PK- OPTION IS OFF, THE INTEGRALS ARE NOT IN SUPERMATRIX FORM.
 STORING   15000 INTEGRALS/RECORD ON DISK, USING 12 BYTES/INTEGRAL.
 TWO ELECTRON INTEGRAL EVALUATION REQUIRES   90424 WORDS OF MEMORY.
 II,JST,KST,LST =  1  1  1  1 NREC =         1 INTLOC =    1
 II,JST,KST,LST =  2  1  1  1 NREC =         1 INTLOC =    2
 II,JST,KST,LST =  3  1  1  1 NREC =         1 INTLOC =   34
 II,JST,KST,LST =  4  1  1  1 NREC =         1 INTLOC =  214
 II,JST,KST,LST =  5  1  1  1 NREC =         1 INTLOC = 1189
 II,JST,KST,LST =  6  1  1  1 NREC =         1 INTLOC = 1866
 II,JST,KST,LST =  7  1  1  1 NREC =         1 INTLOC = 2712
 TOTAL NUMBER OF NONZERO TWO-ELECTRON INTEGRALS =                5583
          1 INTEGRAL RECORDS WERE STORED ON DISK FILE  8.
  ...... END OF TWO-ELECTRON INTEGRALS .....
 STEP CPU TIME =     0.02 TOTAL CPU TIME =        0.0 (    0.0 MIN)
 TOTAL WALL CLOCK TIME=        0.0 SECONDS, CPU UTILIZATION IS  66.67%

          --------------------------
                 RHF SCF CALCULATION
          --------------------------

     NUCLEAR ENERGY =         0.5474247406
     MAXIT =   30     NPUNCH=    2
     EXTRAP=T  DAMP=F  SHIFT=F  RSTRCT=F  DIIS=F  DEM=F  SOSCF=T
     DENSITY MATRIX CONV=  1.00E-06
     SOSCF WILL OPTIMIZE      36 ORBITAL ROTATIONS, SOGTOL=   0.250
     MEMORY REQUIRED FOR RHF ITERS=     33224 WORDS.

 ITER EX DEM     TOTAL ENERGY        E CHANGE  DENSITY CHANGE     ORB. GRAD
   1  0  0       -7.6583971178    -7.6583971178   0.668309819   0.000000000
          ---------------START SECOND ORDER SCF---------------
 SOSCF IS SCALING ROTATION ANGLE MATRIX, SQCDF=    0.174998
   2  1  0       -7.8537259921    -0.1953288743   0.650692686   0.080633120
   3  2  0       -7.9018737535    -0.0481477614   0.171358789   0.023985420
   4  3  0       -7.9124277168    -0.0105539633   0.158680496   0.010481504
   5  4  0       -7.9139818928    -0.0015541759   0.085585896   0.008274916
   6  5  0       -7.9151304406    -0.0011485478   0.009963787   0.001691770
   7  6  0       -7.9151888304    -0.0000583898   0.001524518   0.000209849
   8  7  0       -7.9151897969    -0.0000009666   0.000138243   0.000056212
   9  8  0       -7.9151898044    -0.0000000075   0.000016693   0.000013412
  10  9  0       -7.9151898048    -0.0000000003   0.000001983   0.000000413
  11 10  0       -7.9151898048    -0.0000000000   0.000000103   0.000000037

          -----------------
          DENSITY CONVERGED
          -----------------
     TIME TO FORM FOCK OPERATORS=       0.0 SECONDS (       0.0 SEC/ITER)
     TIME TO SOLVE SCF EQUATIONS=       0.0 SECONDS (       0.0 SEC/ITER)

 FINAL RHF ENERGY IS       -7.9151898048 AFTER  11 ITERATIONS

 LZ VALUE ANALYSIS FOR THE MOS
 ----------------------------------------
 MO     1 (    1) HAS LZ(WEIGHT)= 0.00(100.0%) 
 MO     2 (    2) HAS LZ(WEIGHT)= 0.00(100.0%) 
 MO     3 (    3) HAS LZ(WEIGHT)= 0.00(100.0%) 
 MO     4 (    4) HAS LZ(WEIGHT)=-1.00( 50.0%)  1.00( 50.0%) 
 MO     5 (    4) HAS LZ(WEIGHT)=-1.00( 50.0%)  1.00( 50.0%) 
 MO     6 (    5) HAS LZ(WEIGHT)= 0.00(100.0%) 
 MO     7 (    6) HAS LZ(WEIGHT)= 0.00(100.0%) 
 MO     8 (    7) HAS LZ(WEIGHT)=-1.00( 50.0%)  1.00( 50.0%) 
 MO     9 (    7) HAS LZ(WEIGHT)=-1.00( 50.0%)  1.00( 50.0%) 
 MO    10 (    8) HAS LZ(WEIGHT)= 0.00(100.0%) 
 MO    11 (    9) HAS LZ(WEIGHT)=-2.00( 50.0%)  2.00( 50.0%) 
 MO    12 (    9) HAS LZ(WEIGHT)=-2.00( 50.0%)  2.00( 50.0%) 
 MO    13 (   10) HAS LZ(WEIGHT)=-1.00( 50.0%)  1.00( 50.0%) 
 MO    14 (   10) HAS LZ(WEIGHT)=-1.00( 50.0%)  1.00( 50.0%) 
 MO    15 (   11) HAS LZ(WEIGHT)= 0.00(100.0%) 
 MO    16 (   12) HAS LZ(WEIGHT)= 0.00(100.0%) 
 MO    17 (   13) HAS LZ(WEIGHT)= 0.00(100.0%) 
 MO    18 (   14) HAS LZ(WEIGHT)=-1.00( 50.0%)  1.00( 50.0%) 
 MO    19 (   14) HAS LZ(WEIGHT)=-1.00( 50.0%)  1.00( 50.0%) 
 MO    20 (   15) HAS LZ(WEIGHT)= 0.00(100.0%) 

          ------------
          EIGENVECTORS
          ------------

                      1          2          3          4          5
                   -2.5425    -0.2329    -0.0218     0.0410     0.0410
                     A1         A1         A1         B2         B1  
    1  LI 1  S    0.998753  -0.084272  -0.155227  -0.000000  -0.000000
    2  LI 1  S   -0.011800   0.011536  -0.099662  -0.000000  -0.000000
    3  LI 1  X    0.000000  -0.000000  -0.000000  -0.000000   0.143160
    4  LI 1  Y    0.000000  -0.000000  -0.000000   0.143160  -0.000000
    5  LI 1  Z   -0.005058   0.090492  -0.153531  -0.000000  -0.000000
    6  LI 1  S    0.001599   0.365477   0.807652  -0.000000  -0.000000
    7  LI 1  X    0.000000  -0.000000  -0.000000  -0.000000   0.880787
    8  LI 1  Y    0.000000  -0.000000  -0.000000   0.880787  -0.000000
    9  LI 1  Z    0.003268   0.157658  -0.437013  -0.000000  -0.000000
   10  LI 1 XX    0.008856   0.014797   0.047046  -0.000000  -0.000000
   11  LI 1 YY    0.008856   0.014797   0.047046  -0.000000  -0.000000
   12  LI 1 ZZ    0.008496   0.045152   0.054908  -0.000000  -0.000000
   13  LI 1 XY    0.000000  -0.000000  -0.000000  -0.000000  -0.000000
   14  LI 1 XZ    0.000000  -0.000000  -0.000000  -0.000000  -0.036593
   15  LI 1 YZ    0.000000  -0.000000  -0.000000  -0.036593  -0.000000
   16  H  2  S    0.000124   0.250533  -0.074955  -0.000000  -0.000000
   17  H  2  S    0.000384   0.515836  -0.127487  -0.000000  -0.000000
   18  H  2  X    0.000000  -0.000000  -0.000000  -0.000000   0.002142
   19  H  2  Y    0.000000  -0.000000  -0.000000   0.002142  -0.000000
   20  H  2  Z   -0.000116  -0.003137  -0.001842  -0.000000  -0.000000

                      6          7          8          9         10
                    0.1206     0.1708     0.1882     0.1882     0.2209
                     A1         A1         B2         B1         A1  
    1  LI 1  S   -0.072158   0.080601   0.000000   0.000000   0.063336
    2  LI 1  S    0.885674   2.134560   0.000000   0.000000   2.378562
    3  LI 1  X    0.000000   0.000000   0.000000   1.664054   0.000000
    4  LI 1  Y    0.000000   0.000000   1.664054   0.000000   0.000000
    5  LI 1  Z   -0.238718  -1.171924   0.000000   0.000000   1.153274
    6  LI 1  S   -0.181441  -1.817612   0.000000   0.000000  -1.869172
    7  LI 1  X    0.000000   0.000000   0.000000  -1.422498   0.000000
    8  LI 1  Y    0.000000   0.000000  -1.422498   0.000000   0.000000
    9  LI 1  Z    1.088868   0.675771   0.000000   0.000000  -1.154529
   10  LI 1 XX   -0.031823  -0.247327   0.000000   0.000000  -0.199700
   11  LI 1 YY   -0.031823  -0.247327   0.000000   0.000000  -0.199700
   12  LI 1 ZZ   -0.150786  -0.111530   0.000000   0.000000  -0.256778
   13  LI 1 XY    0.000000   0.000000   0.000000   0.000000   0.000000
   14  LI 1 XZ    0.000000   0.000000   0.000000  -0.067633   0.000000
   15  LI 1 YZ    0.000000   0.000000  -0.067633   0.000000   0.000000
   16  H  2  S   -0.122133   0.054928   0.000000   0.000000  -0.007364
   17  H  2  S   -0.712165   0.310867   0.000000   0.000000   0.218882
   18  H  2  X    0.000000   0.000000   0.000000   0.000037   0.000000
   19  H  2  Y    0.000000   0.000000   0.000037   0.000000   0.000000
   20  H  2  Z   -0.002384   0.001585   0.000000   0.000000  -0.006177

                     11         12         13         14         15
                    0.5302     0.5302     0.5419     0.5419     0.5768
                     A2         A1         B1         B2         A1  
    1  LI 1  S    0.000000   0.000000  -0.000000  -0.000000  -0.020661
    2  LI 1  S    0.000000   0.000000  -0.000000  -0.000000  -0.175126
    3  LI 1  X    0.000000   0.000000   0.118175  -0.000000   0.000000
    4  LI 1  Y    0.000000   0.000000  -0.000000   0.118175   0.000000
    5  LI 1  Z    0.000000   0.000000  -0.000000  -0.000000   0.107727
    6  LI 1  S    0.000000   0.000000  -0.000000  -0.000000   0.220363
    7  LI 1  X    0.000000   0.000000  -0.064469  -0.000000   0.000000
    8  LI 1  Y    0.000000   0.000000  -0.000000  -0.064469   0.000000
    9  LI 1  Z    0.000000   0.000000  -0.000000  -0.000000   0.106238
   10  LI 1 XX    0.000000   0.866025  -0.000000  -0.000000  -0.477426
   11  LI 1 YY    0.000000  -0.866025  -0.000000  -0.000000  -0.477426
   12  LI 1 ZZ    0.000000   0.000000  -0.000000  -0.000000   1.028716
   13  LI 1 XY    1.000000   0.000000  -0.000000  -0.000000   0.000000
   14  LI 1 XZ    0.000000   0.000000   0.996900  -0.000000   0.000000
   15  LI 1 YZ    0.000000   0.000000  -0.000000   0.996900   0.000000
   16  H  2  S    0.000000   0.000000  -0.000000  -0.000000  -0.116809
   17  H  2  S    0.000000   0.000000  -0.000000  -0.000000  -0.242953
   18  H  2  X    0.000000   0.000000   0.008901  -0.000000   0.000000
   19  H  2  Y    0.000000   0.000000  -0.000000   0.008901   0.000000
   20  H  2  Z    0.000000   0.000000  -0.000000  -0.000000  -0.029863

                     16         17         18         19         20
                    1.1602     1.2761     2.4603     2.4603     2.4963
                     A1         A1         B1         B2         A1  
    1  LI 1  S    0.087480   0.077733  -0.000000  -0.000000  -0.002162
    2  LI 1  S    8.479692   4.065066  -0.000000  -0.000000   0.558109
    3  LI 1  X    0.000000  -0.000000   0.004721  -0.000000   0.000000
    4  LI 1  Y    0.000000  -0.000000  -0.000000   0.004721   0.000000
    5  LI 1  Z    0.003621  -0.017211  -0.000000  -0.000000   0.123849
    6  LI 1  S   -2.475418  -1.535106  -0.000000  -0.000000  -0.144320
    7  LI 1  X    0.000000  -0.000000  -0.031694  -0.000000   0.000000
    8  LI 1  Y    0.000000  -0.000000  -0.000000  -0.031694   0.000000
    9  LI 1  Z    0.140900  -0.262500  -0.000000  -0.000000  -0.031528
   10  LI 1 XX   -2.896898  -1.217285  -0.000000  -0.000000  -0.220740
   11  LI 1 YY   -2.896898  -1.217285  -0.000000  -0.000000  -0.220740
   12  LI 1 ZZ   -2.758221  -1.493821  -0.000000  -0.000000  -0.072362
   13  LI 1 XY    0.000000  -0.000000  -0.000000  -0.000000   0.000000
   14  LI 1 XZ    0.000000  -0.000000  -0.020178  -0.000000   0.000000
   15  LI 1 YZ    0.000000  -0.000000  -0.000000  -0.020178   0.000000
   16  H  2  S    0.501982  -1.248605  -0.000000  -0.000000   0.052183
   17  H  2  S   -0.574461   1.224828  -0.000000  -0.000000  -0.102517
   18  H  2  X    0.000000  -0.000000   1.000355  -0.000000   0.000000
   19  H  2  Y    0.000000  -0.000000  -0.000000   1.000355   0.000000
   20  H  2  Z   -0.014832   0.020194  -0.000000  -0.000000   1.005856
 ...... END OF RHF CALCULATION ......
 STEP CPU TIME =     0.01 TOTAL CPU TIME =        0.0 (    0.0 MIN)
 TOTAL WALL CLOCK TIME=        0.0 SECONDS, CPU UTILIZATION IS  60.00%

     ----------------------------------------------------------------
     PROPERTY VALUES FOR THE RHF   SELF-CONSISTENT FIELD WAVEFUNCTION
     ----------------------------------------------------------------

          -----------------
          ENERGY COMPONENTS
          -----------------

         WAVEFUNCTION NORMALIZATION =       1.0000000000

                ONE ELECTRON ENERGY =     -11.3742752642
                TWO ELECTRON ENERGY =       2.9116607189
           NUCLEAR REPULSION ENERGY =       0.5474247406
                                      ------------------
                       TOTAL ENERGY =      -7.9151898048

 ELECTRON-ELECTRON POTENTIAL ENERGY =       2.9116607189
  NUCLEUS-ELECTRON POTENTIAL ENERGY =     -19.1681041775
   NUCLEUS-NUCLEUS POTENTIAL ENERGY =       0.5474247406
                                      ------------------
             TOTAL POTENTIAL ENERGY =     -15.7090187180
               TOTAL KINETIC ENERGY =       7.7938289132
                 VIRIAL RATIO (V/T) =       2.0155714082

  ...... PI ENERGY ANALYSIS ......

 ENERGY ANALYSIS:
            FOCK ENERGY=     -5.5509538271
          BARE H ENERGY=    -11.3742752642
     ELECTRONIC ENERGY =     -8.4626145457
         KINETIC ENERGY=      7.7938289132
          N-N REPULSION=      0.5474247406
           TOTAL ENERGY=     -7.9151898051
        SIGMA PART(1+2)=     -8.4626145457
               (K,V1,2)=      7.7938289132    -19.1681041775      2.9116607186
           PI PART(1+2)=      0.0000000000
               (K,V1,2)=      0.0000000000      0.0000000000      0.0000000000
  SIGMA SKELETON, ERROR=     -7.9151898051      0.0000000000
             MIXED PART= 0.00000E+00 0.00000E+00 0.00000E+00 0.00000E+00
 ...... END OF PI ENERGY ANALYSIS ......

          ---------------------------------------
          MULLIKEN AND LOWDIN POPULATION ANALYSES
          ---------------------------------------

               ----- POPULATIONS IN EACH AO -----
                             MULLIKEN      LOWDIN
              1  LI 1  S      1.99796     1.97912
              2  LI 1  S      0.00793     0.11798
              3  LI 1  X      0.00000     0.00000
              4  LI 1  Y      0.00000     0.00000
              5  LI 1  Z      0.07977     0.10576
              6  LI 1  S      0.42013     0.29272
              7  LI 1  X      0.00000     0.00000
              8  LI 1  Y      0.00000     0.00000
              9  LI 1  Z      0.16529     0.18126
             10  LI 1 XX      0.01004     0.02194
             11  LI 1 YY      0.01004     0.02194
             12  LI 1 ZZ      0.03856     0.06554
             13  LI 1 XY      0.00000     0.00000
             14  LI 1 XZ      0.00000     0.00000
             15  LI 1 YZ      0.00000     0.00000
             16  H  2  S      0.33650     0.38062
             17  H  2  S      0.93361     0.83295
             18  H  2  X      0.00000     0.00000
             19  H  2  Y      0.00000     0.00000
             20  H  2  Z      0.00016     0.00017

          ----- MULLIKEN ATOMIC OVERLAP POPULATIONS -----
          (OFF-DIAGONAL ELEMENTS NEED TO BE MULTIPLIED BY 2)

             1           2

    1    2.4574822
    2    0.2722488   0.9980202

          TOTAL MULLIKEN AND LOWDIN ATOMIC POPULATIONS
       ATOM         MULL.POP.    CHARGE          LOW.POP.     CHARGE
    1 LI            2.729731    0.270269         2.786263    0.213737
    2 H             1.270269   -0.270269         1.213737   -0.213737

          ---------------------
          ELECTROSTATIC MOMENTS
          ---------------------

 POINT   1           X           Y           Z (BOHR)    CHARGE
                 0.000000    0.000000    0.688336       -0.00 (A.U.)
         DX          DY          DZ         /D/  (DEBYE)
     0.000000    0.000000   -8.934818    8.934818
 ...... END OF PROPERTY EVALUATION ......
 STEP CPU TIME =     0.00 TOTAL CPU TIME =        0.0 (    0.0 MIN)
 TOTAL WALL CLOCK TIME=        0.1 SECONDS, CPU UTILIZATION IS  50.00%

 DETERMINANT CI OPTIONS   NRNFG   NPFLG
 INTEGRAL TRANSFORMATION    1       0
 DIAGONALIZE HAMILTONIAN    1       0
 FORM 1E- DENSITY MATRIX    1       0
 FORM 2E- DENSITY MATRIX    0       0

     --------------------------------------------------
          AMES LABORATORY DETERMINANTAL FULL CI
     PROGRAM WRITTEN BY JOE IVANIC AND KLAUS RUEDENBERG
     --------------------------------------------------

 THE POINT GROUP                  =   C2V     
 THE STATE SYMMETRY               =   A1      
 NUMBER OF CORE ORBITALS          =    0
 NUMBER OF ACTIVE ORBITALS        =   20
 NUMBER OF ALPHA ELECTRONS        =    2 (   2 ACTIVE)
 NUMBER OF BETA ELECTRONS         =    2 (   2 ACTIVE)
 NUMBER OF OCCUPIED ORBITALS      =   20
 NUMBER OF CI STATES REQUESTED    =    1
 NUMBER OF CI STARTING VECTORS    =    1
 MAX. NO. OF CI EXPANSION VECTORS =   10
 SIZE OF INITIAL CI GUESS MATRIX  =  300
 MAX. NO. OF CI ITERS/STATE       =  100
 CI DIAGONALIZATION CRITERION     = 1.00E-06
 CI PROPERTIES WILL BE FOUND FOR ROOT NUMBER   1
 1E- DENSITY MATRIX OPTIONS ARE 1

 CORRELATION ENERGY ANALYSIS      =    F

 SYMMETRIES FOR THE   0 CORE,  20 ACTIVE ARE

   ACTIVE= A1    A1    A1    B2    B1    A1    A1    B2    B1    A1  
           A2    A1    B1    B2    A1    A1    A1    B1    B2    A1  

     --------------------------------------------
     PARTIAL TWO ELECTRON INTEGRAL TRANSFORMATION
     --------------------------------------------

 NUMBER OF CORE MOLECULAR ORBITALS     =    0
 NUMBER OF OCCUPIED MOLECULAR ORBITALS =   20
 TOTAL NUMBER OF MOLECULAR ORBITALS    =   20
 TOTAL NUMBER OF ATOMIC ORBITALS       =   20
 THRESHOLD FOR KEEPING TRANSFORMED 2E- INTEGRALS = 1.000E-09
 AO INTEGRALS WILL BE READ IN FROM DISK...

 PLAN A: REQUIREMENTS FOR FULLY IN-MEMORY TRANSFORMATION:
 # OF WORDS AVAILABLE =              1000000
 # OF WORDS NEEDED    =               146042

 CHOOSING IN MEMORY PARTIAL TRANSFORMATION...
 TOTAL NUMBER OF TRANSFORMED 2E- INTEGRALS KEPT =         5962
 ... END OF INTEGRAL TRANSFORMATION ...
 STEP CPU TIME =     0.01 TOTAL CPU TIME =        0.0 (    0.0 MIN)
 TOTAL WALL CLOCK TIME=        0.1 SECONDS, CPU UTILIZATION IS  66.67%

     --------------------------------------------------
          AMES LABORATORY DETERMINANTAL FULL CI
     PROGRAM WRITTEN BY JOE IVANIC AND KLAUS RUEDENBERG
     --------------------------------------------------

 THE NUMBER OF DETERMINANTS HAVING SPACE SYMMETRY A1 
 IN POINT GROUP C2V  WITH SZ=  0.0 IS           9826
 THE DETERMINANT FULL CI REQUIRES          451749 WORDS
 INITIAL CI VECTOR GUESS TIME  :          0.0
 INITIAL FULL CI ITERATION TIME:          0.0

 ITERATION      ENERGY           GRADIENT
     0       -7.9539360967     0.08995147
     1       -7.9555001476     0.00664705
     2       -7.9555566909     0.00333783
     3       -7.9555641765     0.00090641
     4       -7.9555656281     0.00064752
     5       -7.9555662195     0.00032357
     6       -7.9555662818     0.00009242
     7       -7.9555662879     0.00002577
     8       -7.9555662884     0.00000812
     9       -7.9555662885     0.00000221
    10       -7.9555662885     0.00000056

 CONVERGED STATE    1 ENERGY=       -7.9555662885 IN   10 ITERS

 ALL STATES CONVERGED.

 CI EIGENVECTORS WILL BE LABELED IN GROUP=C2V     
 PRINTING CI COEFFICIENTS LARGER THAN 5.000E-02

 STATE   1  ENERGY=        -7.9555662885  S=  0.00  SZ=  0.00  SPACE SYM=A1  

        ALPHA         |        BETA          | CI COEFFICIENT
----------------------|----------------------|---------------
 11000000000000000000 | 11000000000000000000 |   0.9218083337
 10000100000000000000 | 10000100000000000000 |  -0.1518065627
 11000000000000000000 | 10100000000000000000 |   0.1466543027
 10100000000000000000 | 11000000000000000000 |   0.1466543027
 10100000000000000000 | 10000100000000000000 |   0.1400395246
 10000100000000000000 | 10100000000000000000 |   0.1400395246
 10100000000000000000 | 10100000000000000000 |  -0.1218258472
 10000100000000000000 | 10000010000000000000 |   0.0532402863
 10000010000000000000 | 10000100000000000000 |   0.0532402863
 ..... DONE WITH DETERMINANT CI COMPUTATION .....
 STEP CPU TIME =     0.23 TOTAL CPU TIME =        0.3 (    0.0 MIN)
 TOTAL WALL CLOCK TIME=        0.3 SECONDS, CPU UTILIZATION IS  77.14%

     ---------------------------
     ONE PARTICLE DENSITY MATRIX
     ---------------------------

 DENSITY MATRIX WILL BE SAVED FOR   1-TH STATE WITH S= 0.00

 CI EIGENSTATE   1 TOTAL ENERGY =       -7.9555662885

          NATURAL ORBITALS IN ATOMIC ORBITAL BASIS
          ----------------------------------------

                      1          2          3          4          5
                    1.9998     1.7835     0.2136     0.0013     0.0005
                     A1         A1         A1         A1         A1  
    1  LI 1  S    0.998551  -0.105146  -0.151977   0.050927  -0.055935
    2  LI 1  S   -0.007415   0.104785   0.237318   1.253910   0.308894
    3  LI 1  X   -0.000000   0.000000   0.000000   0.000000   0.000000
    4  LI 1  Y   -0.000000   0.000000   0.000000   0.000000   0.000000
    5  LI 1  Z   -0.003981   0.077038   0.143245   1.108708  -0.193702
    6  LI 1  S    0.000683   0.398240   0.575641  -1.047093   0.192885
    7  LI 1  X   -0.000000   0.000000   0.000000   0.000000   0.000000
    8  LI 1  Y   -0.000000   0.000000   0.000000   0.000000   0.000000
    9  LI 1  Z    0.002879   0.102987   0.127629  -0.710868   0.085823
   10  LI 1 XX    0.007857   0.016572   0.013542  -0.327029  -0.011216
   11  LI 1 YY    0.007857   0.016572   0.013542  -0.327029  -0.011216
   12  LI 1 ZZ    0.007690   0.033239   0.055310   0.292068  -0.161662
   13  LI 1 XY   -0.000000   0.000000   0.000000   0.000000   0.000000
   14  LI 1 XZ   -0.000000   0.000000   0.000000   0.000000   0.000000
   15  LI 1 YZ   -0.000000   0.000000   0.000000   0.000000   0.000000
   16  H  2  S    0.000405   0.276764  -0.404585   0.272773   1.173280
   17  H  2  S    0.000654   0.454985  -0.476701  -0.285301  -1.128933
   18  H  2  X   -0.000000   0.000000   0.000000   0.000000   0.000000
   19  H  2  Y   -0.000000   0.000000   0.000000   0.000000   0.000000
   20  H  2  Z   -0.000066  -0.001108  -0.004730  -0.355640  -0.015896

                      6          7          8          9         10
                    0.0004     0.0004     0.0001     0.0001     0.0001
                     B1         B2         B1         B2         A1  
    1  LI 1  S    0.000000   0.000000  -0.000000  -0.000000   0.021255
    2  LI 1  S    0.000000   0.000000  -0.000000  -0.000000   0.798465
    3  LI 1  X    0.510406   0.000000  -0.610878  -0.000000  -0.000000
    4  LI 1  Y    0.000000   0.510406  -0.000000  -0.610878  -0.000000
    5  LI 1  Z    0.000000   0.000000  -0.000000  -0.000000   0.601546
    6  LI 1  S    0.000000   0.000000  -0.000000  -0.000000  -0.632542
    7  LI 1  X    0.260305   0.000000   0.077898  -0.000000  -0.000000
    8  LI 1  Y    0.000000   0.260305  -0.000000   0.077898  -0.000000
    9  LI 1  Z    0.000000   0.000000  -0.000000  -0.000000  -0.462166
   10  LI 1 XX    0.000000   0.000000  -0.000000  -0.000000  -0.112408
   11  LI 1 YY    0.000000   0.000000  -0.000000  -0.000000  -0.112408
   12  LI 1 ZZ    0.000000   0.000000  -0.000000  -0.000000   0.025575
   13  LI 1 XY    0.000000   0.000000  -0.000000  -0.000000  -0.000000
   14  LI 1 XZ    0.370109   0.000000  -0.198206  -0.000000  -0.000000
   15  LI 1 YZ    0.000000   0.370109  -0.000000  -0.198206  -0.000000
   16  H  2  S    0.000000   0.000000  -0.000000  -0.000000   0.086050
   17  H  2  S    0.000000   0.000000  -0.000000  -0.000000  -0.050970
   18  H  2  X    0.547302   0.000000   0.822560  -0.000000  -0.000000
   19  H  2  Y    0.000000   0.547302  -0.000000   0.822560  -0.000000
   20  H  2  Z    0.000000   0.000000  -0.000000  -0.000000   0.926825

                     11         12         13         14         15
                    0.0001     0.0000     0.0000     0.0000     0.0000
                     A1         B1         B2         A1         A1  
    1  LI 1  S    0.134730  -0.000000  -0.000000   0.036145  -0.006847
    2  LI 1  S    8.941104  -0.000000  -0.000000   4.067559   0.139792
    3  LI 1  X    0.000000  -1.470957  -0.000000   0.000000   0.000000
    4  LI 1  Y    0.000000  -0.000000  -1.470957   0.000000   0.000000
    5  LI 1  Z   -0.485291  -0.000000  -0.000000   0.622080  -0.726096
    6  LI 1  S   -3.659787  -0.000000  -0.000000  -0.553171   0.131553
    7  LI 1  X    0.000000   1.557280  -0.000000   0.000000   0.000000
    8  LI 1  Y    0.000000  -0.000000   1.557280   0.000000   0.000000
    9  LI 1  Z    0.145095  -0.000000  -0.000000  -0.012278   1.508174
   10  LI 1 XX   -2.540256  -0.000000  -0.000000  -1.553677  -0.385220
   11  LI 1 YY   -2.540256  -0.000000  -0.000000  -1.553677  -0.385220
   12  LI 1 ZZ   -2.531864  -0.000000  -0.000000  -2.065728   0.461181
   13  LI 1 XY    0.000000  -0.000000  -0.000000   0.000000   0.000000
   14  LI 1 XZ    0.000000   0.257221  -0.000000   0.000000   0.000000
   15  LI 1 YZ    0.000000  -0.000000   0.257221   0.000000   0.000000
   16  H  2  S   -0.231048  -0.000000  -0.000000   0.125954   0.380818
   17  H  2  S    0.356347  -0.000000  -0.000000  -0.368291  -0.877451
   18  H  2  X    0.000000  -0.156525  -0.000000   0.000000   0.000000
   19  H  2  Y    0.000000  -0.000000  -0.156525   0.000000   0.000000
   20  H  2  Z   -0.005608  -0.000000  -0.000000   0.039305   0.126990

                     16         17         18         19         20
                    0.0000     0.0000     0.0000     0.0000     0.0000
                     B1         B2         A2         A1         A1  
    1  LI 1  S   -0.000000  -0.000000   0.000000   0.000000   0.040116
    2  LI 1  S   -0.000000  -0.000000   0.000000   0.000000  -0.948730
    3  LI 1  X    0.078471  -0.000000   0.000000   0.000000   0.000000
    4  LI 1  Y   -0.000000   0.078471   0.000000   0.000000   0.000000
    5  LI 1  Z   -0.000000  -0.000000   0.000000   0.000000  -0.121178
    6  LI 1  S   -0.000000  -0.000000   0.000000   0.000000  -0.654924
    7  LI 1  X   -0.552720  -0.000000   0.000000   0.000000   0.000000
    8  LI 1  Y   -0.000000  -0.552720   0.000000   0.000000   0.000000
    9  LI 1  Z   -0.000000  -0.000000   0.000000   0.000000   0.493085
   10  LI 1 XX   -0.000000  -0.000000   0.000000   0.866025   1.058111
   11  LI 1 YY   -0.000000  -0.000000   0.000000  -0.866025   1.058111
   12  LI 1 ZZ   -0.000000  -0.000000   0.000000   0.000000   0.049458
   13  LI 1 XY   -0.000000  -0.000000   1.000000   0.000000   0.000000
   14  LI 1 XZ    0.870460  -0.000000   0.000000   0.000000   0.000000
   15  LI 1 YZ   -0.000000   0.870460   0.000000   0.000000   0.000000
   16  H  2  S   -0.000000  -0.000000   0.000000   0.000000  -0.028055
   17  H  2  S   -0.000000  -0.000000   0.000000   0.000000   0.092361
   18  H  2  X   -0.012242  -0.000000   0.000000   0.000000   0.000000
   19  H  2  Y   -0.000000  -0.012242   0.000000   0.000000   0.000000
   20  H  2  Z   -0.000000  -0.000000   0.000000   0.000000  -0.099313
 ..... DONE WITH ONE PARTICLE DENSITY MATRIX .....
 STEP CPU TIME =     0.00 TOTAL CPU TIME =        0.3 (    0.0 MIN)
 TOTAL WALL CLOCK TIME=        0.3 SECONDS, CPU UTILIZATION IS  77.14%

     --------------------------------------------------------
     ALDET CI PROPERTIES...FOR THE WAVEFUNCTION OF STATE    1
               USING THE EXPECTATION VALUE DENSITY
     --------------------------------------------------------

          -----------------
          ENERGY COMPONENTS
          -----------------

         WAVEFUNCTION NORMALIZATION =       1.0000000000

                ONE ELECTRON ENERGY =     -11.3720853485
                TWO ELECTRON ENERGY =       2.8690943194
           NUCLEAR REPULSION ENERGY =       0.5474247406
                                      ------------------
                       TOTAL ENERGY =      -7.9555662885

 ELECTRON-ELECTRON POTENTIAL ENERGY =       2.8690943194
  NUCLEUS-ELECTRON POTENTIAL ENERGY =     -19.2570744713
   NUCLEUS-NUCLEUS POTENTIAL ENERGY =       0.5474247406
                                      ------------------
             TOTAL POTENTIAL ENERGY =     -15.8405554113
               TOTAL KINETIC ENERGY =       7.8849891228
                 VIRIAL RATIO (V/T) =       2.0089508260

          ---------------------------------------
          MULLIKEN AND LOWDIN POPULATION ANALYSES
          ---------------------------------------

               ----- POPULATIONS IN EACH AO -----
                             MULLIKEN      LOWDIN
              1  LI 1  S      1.99810     1.98234
              2  LI 1  S      0.14515     0.19919
              3  LI 1  X      0.00020     0.00018
              4  LI 1  Y      0.00020     0.00018
              5  LI 1  Z      0.05132     0.06399
              6  LI 1  S      0.55324     0.39620
              7  LI 1  X      0.00009     0.00011
              8  LI 1  Y      0.00009     0.00011
              9  LI 1  Z      0.07805     0.09813
             10  LI 1 XX      0.01373     0.05123
             11  LI 1 YY      0.01373     0.05123
             12  LI 1 ZZ      0.03465     0.08616
             13  LI 1 XY      0.00000     0.00000
             14  LI 1 XZ      0.00007     0.00007
             15  LI 1 YZ      0.00007     0.00007
             16  H  2  S      0.37473     0.39912
             17  H  2  S      0.73579     0.67076
             18  H  2  X      0.00021     0.00021
             19  H  2  Y      0.00021     0.00021
             20  H  2  Z      0.00037     0.00052

          ----- MULLIKEN ATOMIC OVERLAP POPULATIONS -----
          (OFF-DIAGONAL ELEMENTS NEED TO BE MULTIPLIED BY 2)

             1           2

    1    2.7178171
    2    0.1708638   0.9404552

          TOTAL MULLIKEN AND LOWDIN ATOMIC POPULATIONS
       ATOM         MULL.POP.    CHARGE          LOW.POP.     CHARGE
    1 LI            2.888681    0.111319         2.929175    0.070825
    2 H             1.111319   -0.111319         1.070825   -0.070825

          ---------------------
          ELECTROSTATIC MOMENTS
          ---------------------

 POINT   1           X           Y           Z (BOHR)    CHARGE
                 0.000000    0.000000    0.688336       -0.00 (A.U.)
         DX          DY          DZ         /D/  (DEBYE)
     0.000000    0.000000   -5.681558    5.681558
 ...... END OF PROPERTY EVALUATION ......
 STEP CPU TIME =     0.00 TOTAL CPU TIME =        0.3 (    0.0 MIN)
 TOTAL WALL CLOCK TIME=        0.3 SECONDS, CPU UTILIZATION IS  77.14%
               580000  WORDS OF DYNAMIC MEMORY USED
 EXECUTION OF GAMESS TERMINATED NORMALLY Thu Jan 17 17:48:54 2019
 DDI: 263640 bytes (0.3 MB / 0 MWords) used by master data server.

 ----------------------------------------
 CPU timing information for all processes
 ========================================
 0: 0.224 + 0.56 = 0.280
 1: 0.10 + 0.45 = 0.56
 ----------------------------------------
 ddikick.x: exited gracefully.
unset echo
----- accounting info -----
Files used on the master node bach.ad64.riken.go.jp were:
-rw-------  1 maho  staff      280  1 17 17:48 .//LiH.631g/2.9/LiH.631g.fullCI.2.9.gamess.F05
-rw-r--r--  1 maho  staff   180016  1 17 17:48 .//LiH.631g/2.9/LiH.631g.fullCI.2.9.gamess.F08
-rw-r--r--  1 maho  staff   181704  1 17 17:48 .//LiH.631g/2.9/LiH.631g.fullCI.2.9.gamess.F09
-rw-r--r--  1 maho  staff  1832320  1 17 17:48 .//LiH.631g/2.9/LiH.631g.fullCI.2.9.gamess.F10
-rw-r--r--  1 maho  staff    78640  1 17 17:48 .//LiH.631g/2.9/LiH.631g.fullCI.2.9.gamess.F12
-rw-r--r--  1 maho  staff    14499  1 17 17:48 .//LiH.631g/2.9/LiH.631g.fullCI.2.9.gamess.dat
-rw-------  1 maho  staff      280  1 17 17:48 .//LiH.631g/2.9/LiH.631g.fullCI.2.9.gamess.inp
-rw-r--r--  1 maho  staff    43140  1 17 17:48 .//LiH.631g/2.9/LiH.631g.fullCI.2.9.gamess.log
ls: No match.
ls: No match.
ls: No match.
2019年 1月17日 木曜日 17時48分57秒 JST
0.344u 0.199s 0:03.57 14.8%	0+0k 0+0io 0pf+0w
