----- GAMESS execution script 'rungms' -----
This job is running on host bach.ad64.riken.go.jp
under operating system Darwin at 2019年 1月17日 木曜日 17時51分02秒 JST
Available scratch disk space (Kbyte units) at beginning of the job is
Filesystem   1024-blocks       Used Available Capacity iused      ifree %iused  Mounted on
/dev/disk2s2  1953178672 1144753016 808425656    59%  984454 4293982825    0%   /Volumes/Users
GAMESS temporary binary files will be written to ./
GAMESS supplementary output files will be written to ./
Copying input file LiH.631g/3.8/LiH.631g.CCSDT.3.8.gamess.inp to your run's scratch directory...
cp LiH.631g/3.8/LiH.631g.CCSDT.3.8.gamess.inp .//LiH.631g/3.8/LiH.631g.CCSDT.3.8.gamess.F05
unset echo
/Volumes/Users/maho/bin/gamess//ddikick.x /Volumes/Users/maho/bin/gamess//gamess.00.x LiH.631g/3.8/LiH.631g.CCSDT.3.8.gamess -ddi 1 1 bach.ad64.riken.go.jp -scr ./

 Distributed Data Interface kickoff program.
 Initiating 1 compute processes on 1 nodes to run the following command:
 /Volumes/Users/maho/bin/gamess//gamess.00.x LiH.631g/3.8/LiH.631g.CCSDT.3.8.gamess 

          ******************************************************
          *         GAMESS VERSION = 18 AUG 2016 (R1)          *
          *             FROM IOWA STATE UNIVERSITY             *
          * M.W.SCHMIDT, K.K.BALDRIDGE, J.A.BOATZ, S.T.ELBERT, *
          *   M.S.GORDON, J.H.JENSEN, S.KOSEKI, N.MATSUNAGA,   *
          *          K.A.NGUYEN, S.J.SU, T.L.WINDUS,           *
          *       TOGETHER WITH M.DUPUIS, J.A.MONTGOMERY       *
          *         J.COMPUT.CHEM.  14, 1347-1363(1993)        *
          **************** 64 BIT APPLE VERSION ****************

  SINCE 1993, STUDENTS AND POSTDOCS WORKING AT IOWA STATE UNIVERSITY
  AND ALSO IN THEIR VARIOUS JOBS AFTER LEAVING ISU HAVE MADE IMPORTANT
  CONTRIBUTIONS TO THE CODE:
     IVANA ADAMOVIC, CHRISTINE AIKENS, YURI ALEXEEV, POOJA ARORA,
     ANDREY ASADCHEV, ROB BELL, PRADIPTA BANDYOPADHYAY, JONATHAN BENTZ,
     BRETT BODE, KURT BRORSEN, CALEB CARLIN, GALINA CHABAN, WEI CHEN,
     CHEOL HO CHOI, PAUL DAY, ALBERT DEFUSCO, NUWAN DESILVA, TIM DUDLEY,
     DMITRI FEDOROV, GRAHAM FLETCHER, MARK FREITAG, KURT GLAESEMANN,
     DAN KEMP, GRANT MERRILL, NORIYUKI MINEZAWA, JONATHAN MULLIN,
     TAKESHI NAGATA, SEAN NEDD, HEATHER NETZLOFF, BOSILJKA NJEGIC, RYAN OLSON,
     MIKE PAK, SPENCER PRUITT, LUKE ROSKOP, JIM SHOEMAKER, LYUDMILA SLIPCHENKO,
     TONY SMITH, SAROM SOK LEANG, JIE SONG, TETSUYA TAKETSUGU, SIMON WEBB,
     PENG XU, SOOHAENG YOO, FEDERICO ZAHARIEV

  ADDITIONAL CODE HAS BEEN PROVIDED BY COLLABORATORS IN OTHER GROUPS:
     IOWA STATE UNIVERSITY:
          JOE IVANIC, AARON WEST, LAIMUTIS BYTAUTAS, KLAUS RUEDENBERG
     UNIVERSITY OF TOKYO: KIMIHIKO HIRAO, TAKAHITO NAKAJIMA,
          TAKAO TSUNEDA, MUNEAKI KAMIYA, SUSUMU YANAGISAWA,
          KIYOSHI YAGI, MAHITO CHIBA, SEIKEN TOKURA, NAOAKI KAWAKAMI
     UNIVERSITY OF AARHUS: FRANK JENSEN
     UNIVERSITY OF IOWA: VISVALDAS KAIRYS, HUI LI
     NATIONAL INST. OF STANDARDS AND TECHNOLOGY: WALT STEVENS, DAVID GARMER
     UNIVERSITY OF PISA: BENEDETTA MENNUCCI, JACOPO TOMASI
     UNIVERSITY OF MEMPHIS: HENRY KURTZ, PRAKASHAN KORAMBATH
     UNIVERSITY OF ALBERTA: TOBY ZENG, MARIUSZ KLOBUKOWSKI
     UNIVERSITY OF NEW ENGLAND: MARK SPACKMAN
     MIE UNIVERSITY: HIROAKI UMEDA
     NAT. INST. OF ADVANCED INDUSTRIAL SCIENCE AND TECHNOLOGY: KAZUO KITAURA
     MICHIGAN STATE UNIVERSITY:
          KAROL KOWALSKI, MARTA WLOCH, JEFFREY GOUR, JESSE LUTZ,
          WEI LI, PIOTR PIECUCH
     UNIVERSITY OF SILESIA: MONIKA MUSIAL, STANISLAW KUCHARSKI
     FACULTES UNIVERSITAIRES NOTRE-DAME DE LA PAIX:
          OLIVIER QUINET, BENOIT CHAMPAGNE
     UNIVERSITY OF CALIFORNIA - SANTA BARBARA: BERNARD KIRTMAN
     INSTITUTE FOR MOLECULAR SCIENCE:
          KAZUYA ISHIMURA, MICHIO KATOUDA, AND SHIGERU NAGASE
     UNIVERSITY OF NOTRE DAME: ANNA POMOGAEVA, DAN CHIPMAN
     KYUSHU UNIVERSITY:
          HARUYUKI NAKANO,
          FENG LONG GU, JACEK KORCHOWIEC, MARCIN MAKOWSKI, AND YURIKO AOKI,
          HIROTOSHI MORI AND EISAKU MIYOSHI
     PENNSYLVANIA STATE UNIVERSITY:
          TZVETELIN IORDANOV, CHET SWALINA, JONATHAN SKONE,
          SHARON HAMMES-SCHIFFER
     WASEDA UNIVERSITY:
          MASATO KOBAYASHI, TOMOKO AKAMA, TSUGUKI TOUMA,
          TAKESHI YOSHIKAWA, YASUHIRO IKABATA, JUNJI SEINO,
          YUYA NAKAJIMA, HIROMI NAKAI
     NANJING UNIVERSITY: SHUHUA LI
     UNIVERSITY OF NEBRASKA:
          PEIFENG SU, DEJUN SI, NANDUN THELLAMUREGE, YALI WANG, HUI LI
     UNIVERSITY OF ZURICH: ROBERTO PEVERATI, KIM BALDRIDGE
     N. COPERNICUS UNIVERSITY AND JACKSON STATE UNIVERSITY:
          MARIA BARYSZ
     UNIVERSITY OF COPENHAGEN: Jimmy Kromann, CASPER STEINMANN
     TOKYO INSTITUTE OF TECHNOLOGY: HIROYA NAKATA
     NAGOYA UNIVERSITY: YOSHIO NISHIMOTO, STEPHAN IRLE
     MOSCOW STATE UNIVERSITY: VLADIMIR MIRONOV

 EXECUTION OF GAMESS BEGUN Thu Jan 17 17:51:02 2019

            ECHO OF THE FIRST FEW INPUT CARDS -
 INPUT CARD> $CONTRL MULT=1 SCFTYP=RHF CCTYP=CCSD(T) $END                                   
 INPUT CARD> $BASIS GBASIS=N31 NGAUSS=6 NDFUNC=1 NPFUNC=1 $END                              
 INPUT CARD> $CCINP NCORE=0 $END                                                            
 INPUT CARD> $GUESS GUESS=HUCKEL $END                                                       
 INPUT CARD> $DATA                                                                          
 INPUT CARD>LiH...HF...6-31G* basis                                                         
 INPUT CARD>Cnv   2                                                                         
 INPUT CARD>                                                                                
 INPUT CARD>Li    3.0    0.0      0.0     0.0                                               
 INPUT CARD>H     1.0    0.0      0.0     3.8                                               
 INPUT CARD> $END                                                                           
    1000000 WORDS OF MEMORY AVAILABLE

     BASIS OPTIONS
     -------------
     GBASIS=N31          IGAUSS=       6      POLAR=POPN31  
     NDFUNC=       1     NFFUNC=       0     DIFFSP=       F
     NPFUNC=       1      DIFFS=       F     BASNAM=        


     RUN TITLE
     ---------
 LiH...HF...6-31G* basis                                                         

 THE POINT GROUP OF THE MOLECULE IS CNV     
 THE ORDER OF THE PRINCIPAL AXIS IS     2

 ATOM      ATOMIC                      COORDINATES (BOHR)
           CHARGE         X                   Y                   Z
 LI          3.0     0.0000000000        0.0000000000        0.0000000000
 H           1.0     0.0000000000        0.0000000000        7.1809587533

          INTERNUCLEAR DISTANCES (ANGS.)
          ------------------------------

                1 LI         2 H     

   1 LI      0.0000000    3.8000000  
   2 H       3.8000000    0.0000000  

  * ... LESS THAN  3.000


     ATOMIC BASIS SET
     ----------------
 THE CONTRACTED PRIMITIVE FUNCTIONS HAVE BEEN UNNORMALIZED
 THE CONTRACTED BASIS FUNCTIONS ARE NOW NORMALIZED TO UNITY

  SHELL TYPE  PRIMITIVE        EXPONENT          CONTRACTION COEFFICIENT(S)

 LI        

      1   S       1           642.4189150    0.002142607810
      1   S       2            96.7985153    0.016208871501
      1   S       3            22.0911212    0.077315572504
      1   S       4             6.2010702    0.245786052013
      1   S       5             1.9351177    0.470189004025
      1   S       6             0.6367358    0.345470845019

      2   L       7             2.3249184   -0.035091745735    0.008941508043
      2   L       8             0.6324304   -0.191232843103    0.141009464046
      2   L       9             0.0790534    1.083987794916    0.945363695309

      3   L      10             0.0359620    1.000000000000    1.000000000000

      4   D      11             0.2000000    1.000000000000

 H         

      5   S      12            18.7311370    0.033494604338
      5   S      13             2.8253944    0.234726953484
      5   S      14             0.6401217    0.813757326146

      6   S      15             0.1612778    1.000000000000

      7   P      16             1.1000000    1.000000000000

 TOTAL NUMBER OF BASIS SET SHELLS             =    7
 NUMBER OF CARTESIAN GAUSSIAN BASIS FUNCTIONS =   20
 NUMBER OF ELECTRONS                          =    4
 CHARGE OF MOLECULE                           =    0
 SPIN MULTIPLICITY                            =    1
 NUMBER OF OCCUPIED ORBITALS (ALPHA)          =    2
 NUMBER OF OCCUPIED ORBITALS (BETA )          =    2
 TOTAL NUMBER OF ATOMS                        =    2
 THE NUCLEAR REPULSION ENERGY IS        0.4177715126

 THIS MOLECULE IS RECOGNIZED AS BEING LINEAR,
 ORBITAL LZ DEGENERACY TOLERANCE ETOLLZ= 1.00E-06

     $CONTRL OPTIONS
     ---------------
 SCFTYP=RHF          RUNTYP=ENERGY       EXETYP=RUN     
 MPLEVL=       0     CITYP =NONE         CCTYP =CCSD(T)      VBTYP =NONE    
 DFTTYP=NONE         TDDFT =NONE    
 MULT  =       1     ICHARG=       0     NZVAR =       0     COORD =UNIQUE  
 PP    =NONE         RELWFN=NONE         LOCAL =NONE         NUMGRD=       F
 ISPHER=      -1     NOSYM =       0     MAXIT =      30     UNITS =ANGS    
 PLTORB=       F     MOLPLT=       F     AIMPAC=       F     FRIEND=        
 NPRINT=       7     IREST =       0     GEOM  =INPUT   
 NORMF =       0     NORMP =       0     ITOL  =      20     ICUT  =       9
 INTTYP=BEST         GRDTYP=BEST         QMTTOL= 1.0E-06

     $SYSTEM OPTIONS
     ---------------
  REPLICATED MEMORY=     1000000 WORDS (ON EVERY NODE).
 DISTRIBUTED MEMDDI=           0 MILLION WORDS IN AGGREGATE,
 MEMDDI DISTRIBUTED OVER   1 PROCESSORS IS           0 WORDS/PROCESSOR.
 TOTAL MEMORY REQUESTED ON EACH PROCESSOR=     1000000 WORDS.
 TIMLIM=      525600.00 MINUTES, OR     365.0 DAYS.
 PARALL= F  BALTYP=  DLB     KDIAG=    0  COREFL= F
 MXSEQ2=     300 MXSEQ3=     150  mem10=         0

          ----------------
          PROPERTIES INPUT
          ----------------

     MOMENTS            FIELD           POTENTIAL          DENSITY
 IEMOM =       1   IEFLD =       0   IEPOT =       0   IEDEN =       0
 WHERE =COMASS     WHERE =NUCLEI     WHERE =NUCLEI     WHERE =NUCLEI  
 OUTPUT=BOTH       OUTPUT=BOTH       OUTPUT=BOTH       OUTPUT=BOTH    
 IEMINT=       0   IEFINT=       0                     IEDINT=       0
                                                       MORB  =       0
          EXTRAPOLATION IN EFFECT
          SOSCF IN EFFECT
 ORBITAL PRINTING OPTION: NPREO=     1    20     2     1

     -------------------------------
     INTEGRAL TRANSFORMATION OPTIONS
     -------------------------------
     NWORD  =            0
     CUTOFF = 1.0E-09     MPTRAN =       0
     DIRTRF =       F     AOINTS =DUP     

          ----------------------
          INTEGRAL INPUT OPTIONS
          ----------------------
 NOPK  =       1 NORDER=       0 SCHWRZ=       F

     ------------------------------------------
     THE POINT GROUP IS CNV, NAXIS= 2, ORDER= 4
     ------------------------------------------

     DIMENSIONS OF THE SYMMETRY SUBSPACES ARE
 A1  =   11     A2  =    1     B1  =    4     B2  =    4

 ..... DONE SETTING UP THE RUN .....
 STEP CPU TIME =     0.00 TOTAL CPU TIME =        0.0 (    0.0 MIN)
 TOTAL WALL CLOCK TIME=        0.0 SECONDS, CPU UTILIZATION IS   0.00%

          ********************
          1 ELECTRON INTEGRALS
          ********************
 ...... END OF ONE-ELECTRON INTEGRALS ......
 STEP CPU TIME =     0.00 TOTAL CPU TIME =        0.0 (    0.0 MIN)
 TOTAL WALL CLOCK TIME=        0.0 SECONDS, CPU UTILIZATION IS   0.00%

          -------------
          GUESS OPTIONS
          -------------
          GUESS =HUCKEL            NORB  =       0          NORDER=       0
          MIX   =       F          PRTMO =       F          PUNMO =       F
          TOLZ  = 1.0E-08          TOLE  = 1.0E-05
          SYMDEN=       F          PURIFY=       F

 INITIAL GUESS ORBITALS GENERATED BY HUCKEL   ROUTINE.
 HUCKEL GUESS REQUIRES      4469 WORDS.

 SYMMETRIES FOR INITIAL GUESS ORBITALS FOLLOW.   BOTH SET(S).
     2 ORBITALS ARE OCCUPIED (    1 CORE ORBITALS).
     2=A1       3=A1       4=A1       5=A1       6=A1       7=A1       8=A1  
     9=A1      10=A1      11=A1      12=A2  
 ...... END OF INITIAL ORBITAL SELECTION ......
 STEP CPU TIME =     0.00 TOTAL CPU TIME =        0.0 (    0.0 MIN)
 TOTAL WALL CLOCK TIME=        0.0 SECONDS, CPU UTILIZATION IS   0.00%

                    ----------------------
                    AO INTEGRAL TECHNOLOGY
                    ----------------------
     S,P,L SHELL ROTATED AXIS INTEGRALS, REPROGRAMMED BY
        KAZUYA ISHIMURA (IMS) AND JOSE SIERRA (SYNSTAR).
     S,P,D,L SHELL ROTATED AXIS INTEGRALS PROGRAMMED BY
        KAZUYA ISHIMURA (INSTITUTE FOR MOLECULAR SCIENCE).
     S,P,D,F,G SHELL TO TOTAL QUARTET ANGULAR MOMENTUM SUM 5,
        ERIC PROGRAM BY GRAHAM FLETCHER (ELORET AND NASA ADVANCED
        SUPERCOMPUTING DIVISION, AMES RESEARCH CENTER).
     S,P,D,F,G,L SHELL GENERAL RYS QUADRATURE PROGRAMMED BY
        MICHEL DUPUIS (PACIFIC NORTHWEST NATIONAL LABORATORY).

          --------------------
          2 ELECTRON INTEGRALS
          --------------------

 THE -PK- OPTION IS OFF, THE INTEGRALS ARE NOT IN SUPERMATRIX FORM.
 STORING   15000 INTEGRALS/RECORD ON DISK, USING 12 BYTES/INTEGRAL.
 TWO ELECTRON INTEGRAL EVALUATION REQUIRES   90424 WORDS OF MEMORY.
 II,JST,KST,LST =  1  1  1  1 NREC =         1 INTLOC =    1
 II,JST,KST,LST =  2  1  1  1 NREC =         1 INTLOC =    2
 II,JST,KST,LST =  3  1  1  1 NREC =         1 INTLOC =   34
 II,JST,KST,LST =  4  1  1  1 NREC =         1 INTLOC =  214
 II,JST,KST,LST =  5  1  1  1 NREC =         1 INTLOC = 1189
 II,JST,KST,LST =  6  1  1  1 NREC =         1 INTLOC = 1846
 II,JST,KST,LST =  7  1  1  1 NREC =         1 INTLOC = 2687
 TOTAL NUMBER OF NONZERO TWO-ELECTRON INTEGRALS =                5358
          1 INTEGRAL RECORDS WERE STORED ON DISK FILE  8.
  ...... END OF TWO-ELECTRON INTEGRALS .....
 STEP CPU TIME =     0.02 TOTAL CPU TIME =        0.0 (    0.0 MIN)
 TOTAL WALL CLOCK TIME=        0.0 SECONDS, CPU UTILIZATION IS  66.67%

          --------------------------
                 RHF SCF CALCULATION
          --------------------------

     NUCLEAR ENERGY =         0.4177715126
     MAXIT =   30     NPUNCH=    2
     EXTRAP=T  DAMP=F  SHIFT=F  RSTRCT=F  DIIS=F  DEM=F  SOSCF=T
     DENSITY MATRIX CONV=  1.00E-06
     SOSCF WILL OPTIMIZE      36 ORBITAL ROTATIONS, SOGTOL=   0.250
     MEMORY REQUIRED FOR RHF ITERS=     33224 WORDS.

 ITER EX DEM     TOTAL ENERGY        E CHANGE  DENSITY CHANGE     ORB. GRAD
   1  0  0       -7.5387806932    -7.5387806932   1.182450324   0.000000000
          ---------------START SECOND ORDER SCF---------------
 SOSCF IS SCALING ROTATION ANGLE MATRIX, SQCDF=    0.212868
   2  1  0       -7.4912735623     0.0475071309   0.429697593   0.099688554
 SOSCF IS SCALING ROTATION ANGLE MATRIX, SQCDF=    0.495696
   3  2  0       -7.7845711522    -0.2932975900   1.049579698   0.084699730
   4  3  0       -7.8356792159    -0.0511080637   0.231311828   0.023301166
   5  4  0       -7.8552143967    -0.0195351808   0.347588375   0.013627803
   6  5  0       -7.8456892804     0.0095251163   0.257920988   0.045078920
   7  6  0       -7.8627420239    -0.0170527435   0.054952461   0.010420734
   8  7  0       -7.8659345779    -0.0031925540   0.084626442   0.005578023
   9  8  0       -7.8666245032    -0.0006899253   0.045948287   0.005265223
  10  9  0       -7.8670604800    -0.0004359768   0.006268619   0.000960081
  11 10  0       -7.8670846140    -0.0000241340   0.001906276   0.000382917
  12 11  0       -7.8670868806    -0.0000022666   0.000160698   0.000032396
  13 12  0       -7.8670868937    -0.0000000131   0.000035527   0.000003152
  14 13  0       -7.8670868939    -0.0000000002   0.000002151   0.000001090
  15 14  0       -7.8670868939    -0.0000000000   0.000000479   0.000000234
  16 15  0       -7.8670868939    -0.0000000000   0.000000000   0.000000004

 RHF HAS CONVERGED, NOW COMPUTING EXACT TOTAL FOCK MATRIX
 FOR USE DURING THE COUPLED CLUSTER CALCULATION THAT FOLLOWS.

          -----------------
          DENSITY CONVERGED
          -----------------
     TIME TO FORM FOCK OPERATORS=       0.0 SECONDS (       0.0 SEC/ITER)
     TIME TO SOLVE SCF EQUATIONS=       0.0 SECONDS (       0.0 SEC/ITER)

 FINAL RHF ENERGY IS       -7.8670868939 AFTER  16 ITERATIONS

 LZ VALUE ANALYSIS FOR THE MOS
 ----------------------------------------
 MO     1 (    1) HAS LZ(WEIGHT)= 0.00(100.0%) 
 MO     2 (    2) HAS LZ(WEIGHT)= 0.00(100.0%) 
 MO     3 (    3) HAS LZ(WEIGHT)= 0.00(100.0%) 
 MO     4 (    4) HAS LZ(WEIGHT)=-1.00( 50.0%)  1.00( 50.0%) 
 MO     5 (    4) HAS LZ(WEIGHT)=-1.00( 50.0%)  1.00( 50.0%) 
 MO     6 (    5) HAS LZ(WEIGHT)= 0.00(100.0%) 
 MO     7 (    6) HAS LZ(WEIGHT)= 0.00(100.0%) 
 MO     8 (    7) HAS LZ(WEIGHT)=-1.00( 50.0%)  1.00( 50.0%) 
 MO     9 (    7) HAS LZ(WEIGHT)=-1.00( 50.0%)  1.00( 50.0%) 
 MO    10 (    8) HAS LZ(WEIGHT)= 0.00(100.0%) 
 MO    11 (    9) HAS LZ(WEIGHT)=-2.00( 50.0%)  2.00( 50.0%) 
 MO    12 (    9) HAS LZ(WEIGHT)=-2.00( 50.0%)  2.00( 50.0%) 
 MO    13 (   10) HAS LZ(WEIGHT)=-1.00( 50.0%)  1.00( 50.0%) 
 MO    14 (   10) HAS LZ(WEIGHT)=-1.00( 50.0%)  1.00( 50.0%) 
 MO    15 (   11) HAS LZ(WEIGHT)= 0.00(100.0%) 
 MO    16 (   12) HAS LZ(WEIGHT)= 0.00(100.0%) 
 MO    17 (   13) HAS LZ(WEIGHT)= 0.00(100.0%) 
 MO    18 (   14) HAS LZ(WEIGHT)=-1.00( 50.0%)  1.00( 50.0%) 
 MO    19 (   14) HAS LZ(WEIGHT)=-1.00( 50.0%)  1.00( 50.0%) 
 MO    20 (   15) HAS LZ(WEIGHT)= 0.00(100.0%) 

          ------------
          EIGENVECTORS
          ------------

                      1          2          3          4          5
                   -2.5752    -0.2012    -0.0392     0.0283     0.0283
                     A1         A1         A1         B1         B2  
    1  LI 1  S    0.998757  -0.088012  -0.160616  -0.000000  -0.000000
    2  LI 1  S   -0.012277  -0.055349   0.034868  -0.000000  -0.000000
    3  LI 1  X    0.000000  -0.000000   0.000000   0.214983  -0.000000
    4  LI 1  Y    0.000000  -0.000000   0.000000  -0.000000   0.214983
    5  LI 1  Z   -0.003399   0.020492  -0.121844  -0.000000  -0.000000
    6  LI 1  S    0.001966   0.450329   0.743880  -0.000000  -0.000000
    7  LI 1  X    0.000000  -0.000000   0.000000   0.818799  -0.000000
    8  LI 1  Y    0.000000  -0.000000   0.000000  -0.000000   0.818799
    9  LI 1  Z    0.002328   0.208547  -0.355559  -0.000000  -0.000000
   10  LI 1 XX    0.008811   0.022931   0.038730  -0.000000  -0.000000
   11  LI 1 YY    0.008811   0.022931   0.038730  -0.000000  -0.000000
   12  LI 1 ZZ    0.008629   0.046266   0.037500  -0.000000  -0.000000
   13  LI 1 XY    0.000000  -0.000000   0.000000  -0.000000  -0.000000
   14  LI 1 XZ    0.000000  -0.000000   0.000000  -0.030801  -0.000000
   15  LI 1 YZ    0.000000  -0.000000   0.000000  -0.000000  -0.030801
   16  H  2  S    0.000056   0.242254  -0.093805  -0.000000  -0.000000
   17  H  2  S   -0.000170   0.571635  -0.220816  -0.000000  -0.000000
   18  H  2  X    0.000000  -0.000000   0.000000   0.001391  -0.000000
   19  H  2  Y    0.000000  -0.000000   0.000000  -0.000000   0.001391
   20  H  2  Z   -0.000034  -0.001548  -0.001029  -0.000000  -0.000000

                      6          7          8          9         10
                    0.0763     0.1531     0.1718     0.1718     0.2218
                     A1         A1         B1         B2         A1  
    1  LI 1  S   -0.050886   0.058702  -0.000000  -0.000000   0.072081
    2  LI 1  S    0.652502   2.194707  -0.000000  -0.000000   2.390540
    3  LI 1  X   -0.000000  -0.000000   1.658191  -0.000000  -0.000000
    4  LI 1  Y   -0.000000  -0.000000  -0.000000   1.658191  -0.000000
    5  LI 1  Z    0.199201  -1.233260  -0.000000  -0.000000   1.162752
    6  LI 1  S   -0.182624  -1.727906  -0.000000  -0.000000  -1.922660
    7  LI 1  X   -0.000000  -0.000000  -1.459742  -0.000000  -0.000000
    8  LI 1  Y   -0.000000  -0.000000  -0.000000  -1.459742  -0.000000
    9  LI 1  Z    0.716163   0.986527  -0.000000  -0.000000  -1.253224
   10  LI 1 XX   -0.007113  -0.227487  -0.000000  -0.000000  -0.212015
   11  LI 1 YY   -0.007113  -0.227487  -0.000000  -0.000000  -0.212015
   12  LI 1 ZZ   -0.110936  -0.160878  -0.000000  -0.000000  -0.225580
   13  LI 1 XY   -0.000000  -0.000000  -0.000000  -0.000000  -0.000000
   14  LI 1 XZ   -0.000000  -0.000000  -0.048719  -0.000000  -0.000000
   15  LI 1 YZ   -0.000000  -0.000000  -0.000000  -0.048719  -0.000000
   16  H  2  S   -0.118287   0.024578  -0.000000  -0.000000   0.035558
   17  H  2  S   -0.518177   0.017785  -0.000000  -0.000000   0.402722
   18  H  2  X   -0.000000  -0.000000  -0.000874  -0.000000  -0.000000
   19  H  2  Y   -0.000000  -0.000000  -0.000000  -0.000874  -0.000000
   20  H  2  Z   -0.003812   0.002301  -0.000000  -0.000000  -0.001225

                     11         12         13         14         15
                    0.5067     0.5067     0.5145     0.5145     0.5201
                     A1         A2         B2         B1         A1  
    1  LI 1  S   -0.000000   0.000000  -0.000000  -0.000000  -0.004308
    2  LI 1  S   -0.000000   0.000000  -0.000000  -0.000000   0.006944
    3  LI 1  X   -0.000000   0.000000  -0.000000   0.087570   0.000000
    4  LI 1  Y   -0.000000   0.000000   0.087570  -0.000000   0.000000
    5  LI 1  Z   -0.000000   0.000000  -0.000000  -0.000000   0.065970
    6  LI 1  S   -0.000000   0.000000  -0.000000  -0.000000   0.038553
    7  LI 1  X   -0.000000   0.000000  -0.000000  -0.046001   0.000000
    8  LI 1  Y   -0.000000   0.000000  -0.046001  -0.000000   0.000000
    9  LI 1  Z   -0.000000   0.000000  -0.000000  -0.000000   0.009344
   10  LI 1 XX   -0.866025   0.000000  -0.000000  -0.000000  -0.509161
   11  LI 1 YY    0.866025   0.000000  -0.000000  -0.000000  -0.509161
   12  LI 1 ZZ   -0.000000   0.000000  -0.000000  -0.000000   0.981616
   13  LI 1 XY   -0.000000   1.000000  -0.000000  -0.000000   0.000000
   14  LI 1 XZ   -0.000000   0.000000  -0.000000   0.998337   0.000000
   15  LI 1 YZ   -0.000000   0.000000   0.998337  -0.000000   0.000000
   16  H  2  S   -0.000000   0.000000  -0.000000  -0.000000  -0.085932
   17  H  2  S   -0.000000   0.000000  -0.000000  -0.000000  -0.025599
   18  H  2  X   -0.000000   0.000000  -0.000000   0.000946   0.000000
   19  H  2  Y   -0.000000   0.000000   0.000946  -0.000000   0.000000
   20  H  2  Z   -0.000000   0.000000  -0.000000  -0.000000  -0.005951

                     16         17         18         19         20
                    1.1563     1.2091     2.4640     2.4640     2.4709
                     A1         A1         B2         B1         A1  
    1  LI 1  S    0.106729   0.051984  -0.000000  -0.000000  -0.000520
    2  LI 1  S    9.095238   2.584549  -0.000000  -0.000000   0.358183
    3  LI 1  X    0.000000   0.000000  -0.000000   0.017696   0.000000
    4  LI 1  Y    0.000000   0.000000   0.017696  -0.000000   0.000000
    5  LI 1  Z   -0.005022   0.103493  -0.000000  -0.000000  -0.002524
    6  LI 1  S   -2.784389  -1.023544  -0.000000  -0.000000  -0.063717
    7  LI 1  X    0.000000   0.000000  -0.000000  -0.027756   0.000000
    8  LI 1  Y    0.000000   0.000000  -0.027756  -0.000000   0.000000
    9  LI 1  Z    0.031107  -0.267686  -0.000000  -0.000000   0.044448
   10  LI 1 XX   -3.044194  -0.744661  -0.000000  -0.000000  -0.137683
   11  LI 1 YY   -3.044194  -0.744661  -0.000000  -0.000000  -0.137683
   12  LI 1 ZZ   -3.020844  -0.889743  -0.000000  -0.000000  -0.121783
   13  LI 1 XY    0.000000   0.000000  -0.000000  -0.000000   0.000000
   14  LI 1 XZ    0.000000   0.000000  -0.000000  -0.001334   0.000000
   15  LI 1 YZ    0.000000   0.000000  -0.001334  -0.000000   0.000000
   16  H  2  S    0.319704  -1.278710  -0.000000  -0.000000   0.017400
   17  H  2  S   -0.236258   1.166388  -0.000000  -0.000000  -0.032511
   18  H  2  X    0.000000   0.000000  -0.000000   1.000120   0.000000
   19  H  2  Y    0.000000   0.000000   1.000120  -0.000000   0.000000
   20  H  2  Z   -0.023565   0.000213  -0.000000  -0.000000   1.000809
 ...... END OF RHF CALCULATION ......
 STEP CPU TIME =     0.01 TOTAL CPU TIME =        0.0 (    0.0 MIN)
 TOTAL WALL CLOCK TIME=        0.2 SECONDS, CPU UTILIZATION IS  16.67%

     ----------------------------------------------------------------
     PROPERTY VALUES FOR THE RHF   SELF-CONSISTENT FIELD WAVEFUNCTION
     ----------------------------------------------------------------

          ---------------------------------------
          MULLIKEN AND LOWDIN POPULATION ANALYSES
          ---------------------------------------

               ----- POPULATIONS IN EACH AO -----
                             MULLIKEN      LOWDIN
              1  LI 1  S      1.99795     1.97925
              2  LI 1  S     -0.05313     0.09904
              3  LI 1  X      0.00000     0.00000
              4  LI 1  Y      0.00000     0.00000
              5  LI 1  Z      0.01165     0.03756
              6  LI 1  S      0.48281     0.31538
              7  LI 1  X      0.00000     0.00000
              8  LI 1  Y      0.00000     0.00000
              9  LI 1  Z      0.18508     0.17076
             10  LI 1 XX      0.01423     0.02268
             11  LI 1 YY      0.01423     0.02268
             12  LI 1 ZZ      0.03077     0.03811
             13  LI 1 XY      0.00000     0.00000
             14  LI 1 XZ      0.00000     0.00000
             15  LI 1 YZ      0.00000     0.00000
             16  H  2  S      0.32208     0.38551
             17  H  2  S      0.99428     0.92891
             18  H  2  X      0.00000     0.00000
             19  H  2  Y      0.00000     0.00000
             20  H  2  Z      0.00005     0.00011

          ----- MULLIKEN ATOMIC OVERLAP POPULATIONS -----
          (OFF-DIAGONAL ELEMENTS NEED TO BE MULTIPLIED BY 2)

             1           2

    1    2.5027462
    2    0.1808489   1.1355561

          TOTAL MULLIKEN AND LOWDIN ATOMIC POPULATIONS
       ATOM         MULL.POP.    CHARGE          LOW.POP.     CHARGE
    1 LI            2.683595    0.316405         2.685469    0.314531
    2 H             1.316405   -0.316405         1.314531   -0.314531

          -------------------------------
          BOND ORDER AND VALENCE ANALYSIS     BOND ORDER THRESHOLD=0.050
          -------------------------------

                   BOND                       BOND                       BOND
  ATOM PAIR DIST  ORDER      ATOM PAIR DIST  ORDER      ATOM PAIR DIST  ORDER
    1   2  3.800  0.900

                       TOTAL       BONDED        FREE
      ATOM            VALENCE     VALENCE     VALENCE
    1 LI                0.900       0.900       0.000
    2 H                 0.900       0.900       0.000

          ---------------------
          ELECTROSTATIC MOMENTS
          ---------------------

 POINT   1           X           Y           Z (BOHR)    CHARGE
                 0.000000    0.000000    0.901958       -0.00 (A.U.)
         DX          DY          DZ         /D/  (DEBYE)
     0.000000    0.000000  -10.844197   10.844197
 ...... END OF PROPERTY EVALUATION ......
 STEP CPU TIME =     0.01 TOTAL CPU TIME =        0.0 (    0.0 MIN)
 TOTAL WALL CLOCK TIME=        0.2 SECONDS, CPU UTILIZATION IS  21.05%

     ---------------------------
     COUPLED CLUSTER CALCULATION
     ---------------------------
 CCTYP                        =CCSD(T) 
 TOTAL NUMBER OF MOS          =    20
 NUMBER OF OCCUPIED MOS       =     2
 NUMBER OF FROZEN CORE MOS    =     0
 NUMBER OF FROZEN VIRTUAL MOS =     0
 MAXIMUM CC ITERATIONS        =    30
 MAXIMUM DIIS ITERATIONS      =     5
 CONVERGENCE CRITERION FOR CC =     7
 AMPLITUDE ACCURACY THRESHOLD = 0.0E+00

     --------------------------------------------
     PARTIAL TWO ELECTRON INTEGRAL TRANSFORMATION
     --------------------------------------------

 NUMBER OF CORE MOLECULAR ORBITALS     =    0
 NUMBER OF OCCUPIED MOLECULAR ORBITALS =   20
 TOTAL NUMBER OF MOLECULAR ORBITALS    =   20
 TOTAL NUMBER OF ATOMIC ORBITALS       =   20
 THRESHOLD FOR KEEPING TRANSFORMED 2E- INTEGRALS = 1.000E-09
 AO INTEGRALS WILL BE READ IN FROM DISK...

 PLAN A: REQUIREMENTS FOR FULLY IN-MEMORY TRANSFORMATION:
 # OF WORDS AVAILABLE =              1000000
 # OF WORDS NEEDED    =               146042

 CHOOSING IN MEMORY PARTIAL TRANSFORMATION...
 TOTAL NUMBER OF TRANSFORMED 2E- INTEGRALS KEPT =         5962
 ... END OF INTEGRAL TRANSFORMATION ...
 STEP CPU TIME =     0.00 TOTAL CPU TIME =        0.0 (    0.0 MIN)
 TOTAL WALL CLOCK TIME=        0.2 SECONDS, CPU UTILIZATION IS  21.05%

   -----------------------
   COUPLED-CLUSTER PROGRAM
   -----------------------

   -------------------------------------------------------
   P.PIECUCH, S.A.KUCHARSKI, M.WLOCH, K.KOWALSKI, M.MUSIAL
   -------------------------------------------------------

 *****************************************************************
 THE FOLLOWING PAPERS SHOULD BE CITED WHEN USING COUPLED-CLUSTER
 OPTIONS:

 CCTYP = LCCD, CCD, CCSD, CCSD(T)
 P. PIECUCH, S.A. KUCHARSKI, K. KOWALSKI, AND M. MUSIAL,
 COMP. PHYS. COMMUN. 149, 71-96 (2002).

 CCTYP = R-CC, CR-CC, CCSD(TQ), CR-CC(Q)
 P. PIECUCH, S.A. KUCHARSKI, K. KOWALSKI, AND M. MUSIAL,
 COMP. PHYS. COMMUN. 149, 71-96 (2002);
 K. KOWALSKI AND P. PIECUCH, J. CHEM. PHYS. 113, 18-35 (2000);
 K. KOWALSKI AND P. PIECUCH, J. CHEM. PHYS. 113, 5644-5652 (2000).

 CCTYP = EOM-CCSD, CR-EOM
 P. PIECUCH, S.A. KUCHARSKI, K. KOWALSKI, AND M. MUSIAL,
 COMP. PHYS. COMMUN. 149, 71-96 (2002);
 K. KOWALSKI AND P. PIECUCH, J. CHEM. PHYS. 120, 1715-1738 (2004);
 M. WLOCH, J.R. GOUR, K. KOWALSKI, AND P. PIECUCH,
 J. CHEM. PHYS. 122, 214107-1 - 214107-15 (2005).

 CCTYP = CR-CCL
 P. PIECUCH, S.A. KUCHARSKI, K. KOWALSKI, AND M. MUSIAL,
 COMP. PHYS. COMMUN. 149, 71-96 (2002);
 P. PIECUCH AND M. WLOCH, J. CHEM. PHYS. 123,
 224105-1 - 224105-10 (2005).

 CCTYP = CR-EOML
 P. PIECUCH, S.A. KUCHARSKI, K. KOWALSKI, AND M. MUSIAL,
 COMP. PHYS. COMMUN. 149, 71-96 (2002);
 P. PIECUCH, J. R. GOUR, AND M. WLOCH,
 INT. J. QUANTUM CHEM. 109, 3268-3304 (2009);
 K. KOWALSKI AND P. PIECUCH,
 J. CHEM. PHYS. 120, 1715-1738 (2004).

 IN ADDITION, THE USE OF CCPRP=.TRUE. IN $CCINP AND/OR THE USE
 OF CCPRPE=.TRUE. IN $EOMINP SHOULD REFERENCE

 M. WLOCH, J.R. GOUR, K. KOWALSKI, AND P. PIECUCH,
 J. CHEM. PHYS. 122, 214107-1 - 214107-15 (2005).
 *****************************************************************


 THE FOLLOWING CALCULATIONS WILL BE PERFORMED:
                                                     CCSD   
                                                     CCSD[T]
                                                     CCSD(T)

 THE FOLLOWING ENERGY WILL BE CONSIDERED THE HIGHEST LEVEL:    CCSD(T)
 THE AVAILABLE REPLICATED MEMORY IS     1000000 WORDS.
 CONVERGENCE THRESHOLD:   1.0E-07
 MAXIMUM NUMBER OF ITERATIONS:   30

 MEMORY TO BE USED IN CC INTEGRAL SORTING IS      140808 WORDS.
 THE MINIMUM MEMORY TO ACCOMPLISH SORTING IS       47496 WORDS.
         5962 NON-ZERO TRANSFORMED 2E- INTEGRALS WERE SORTED INTO FILE 72:
            6 [IJ|KL] TYPE,          48 [AJ|KL] TYPE,
          174 [AB|IJ] TYPE,         214 [IA|BJ] TYPE,
         1672 [AB|CI] TYPE,        3848 [AB|CD] TYPE.
 TRANSFORMED INTEGRAL FILE  9 WAS READ    3 TIMES.
 ....... DONE WITH CC INTEGRAL PREPARATION .......
 STEP CPU TIME =     0.00 TOTAL CPU TIME =        0.0 (    0.0 MIN)
 TOTAL WALL CLOCK TIME=        0.2 SECONDS, CPU UTILIZATION IS  19.05%

 MEMORY REQUIRED FOR THE CCSD ITERATIONS IS       23276 WORDS.
 ITER:  1   CCSD    CORR. ENERGY:  -0.0404128691   CONV.:  4.8598E-02
 ITER:  2   CCSD    CORR. ENERGY:  -0.0452344747   CONV.: -2.7424E-02
 ITER:  3   CCSD    CORR. ENERGY:  -0.0474345475   CONV.:  1.1666E-02
 ITER:  4   CCSD    CORR. ENERGY:  -0.0472212503   CONV.: -1.4201E-01
 ITER:  5   CCSD    CORR. ENERGY:  -0.0472290776   CONV.: -1.4189E-01
 ITER:  6   CCSD    CORR. ENERGY:  -0.0474312220   CONV.: -1.4135E-01
 ITER:  7   CCSD    CORR. ENERGY:  -0.0509866394   CONV.: -1.1945E-01
 ITER:  8   CCSD    CORR. ENERGY:  -0.0534441902   CONV.: -1.1066E-01
 ITER:  9   CCSD    CORR. ENERGY:  -0.0824590542   CONV.:  2.1004E-01
 ITER: 10   CCSD    CORR. ENERGY:  -0.0830868585   CONV.:  2.1818E-01
 ITER: 11   CCSD    CORR. ENERGY:  -0.0895533140   CONV.:  3.1263E-01
 ITER: 12   CCSD    CORR. ENERGY:  -0.0897545209   CONV.:  3.1505E-01
 ITER: 13   CCSD    CORR. ENERGY:  -0.0711622917   CONV.:  3.8335E-02
 ITER: 14   CCSD    CORR. ENERGY:  -0.0693805905   CONV.:  1.5862E-02
 ITER: 15   CCSD    CORR. ENERGY:  -0.0685041284   CONV.: -6.5567E-03
 ITER: 16   CCSD    CORR. ENERGY:  -0.0680547064   CONV.:  1.0821E-03
 ITER: 17   CCSD    CORR. ENERGY:  -0.0679555751   CONV.: -3.7991E-04
 ITER: 18   CCSD    CORR. ENERGY:  -0.0679639889   CONV.: -3.0244E-04
 ITER: 19   CCSD    CORR. ENERGY:  -0.0679712094   CONV.:  4.1206E-05
 ITER: 20   CCSD    CORR. ENERGY:  -0.0679717699   CONV.: -8.4646E-06
 ITER: 21   CCSD    CORR. ENERGY:  -0.0679725602   CONV.:  5.6964E-06
 ITER: 22   CCSD    CORR. ENERGY:  -0.0679721840   CONV.:  1.4866E-06
 ITER: 23   CCSD    CORR. ENERGY:  -0.0679721581   CONV.: -7.1297E-07
 ITER: 24   CCSD    CORR. ENERGY:  -0.0679720849   CONV.:  1.2376E-06
 ITER: 25   CCSD    CORR. ENERGY:  -0.0679720241   CONV.:  2.5282E-07
 ITER: 26   CCSD    CORR. ENERGY:  -0.0679720075   CONV.:  9.5300E-08
 ITER: 27   CCSD    CORR. ENERGY:  -0.0679720028   CONV.:  9.5300E-08

     THE    CCSD     ITERATIONS HAVE CONVERGED

    MBPT(2) CORRELATION ENERGY:  -0.0317209130
    CCSD    CORRELATION ENERGY:  -0.0679720028

 T1 DIAGNOSTIC        =     0.20500698
 NORM OF THE T1 VECTOR=     0.41001395
 NORM OF THE T2 VECTOR=     0.77316799

 THE FIVE LARGEST T1 AMPLITUDES ARE:
 T1 AMPLITUDE IS -0.397946 FOR I=   2 -> A=   3
 T1 AMPLITUDE IS  0.061664 FOR I=   2 -> A=  10
 T1 AMPLITUDE IS  0.057083 FOR I=   2 -> A=   6
 T1 AMPLITUDE IS  0.041461 FOR I=   2 -> A=  17
 T1 AMPLITUDE IS  0.027733 FOR I=   2 -> A=   7

 THE FIVE LARGEST SPIN-UNIQUE T2 AMPLITUDES ARE:
 T2 AMPLITUDE IS -0.553347 FOR I,J=   2   2 -> A,B=   3   3
 T2 AMPLITUDE IS  0.338374 FOR I,J=   2   2 -> A,B=   3   6
 T2 AMPLITUDE IS -0.217658 FOR I,J=   2   2 -> A,B=   6   6
 T2 AMPLITUDE IS -0.055905 FOR I,J=   2   2 -> A,B=   3  17
 T2 AMPLITUDE IS  0.036751 FOR I,J=   2   2 -> A,B=   6  17
 PRINTED T2(I-ALPHA,J-BETA -> A-ALPHA,B-BETA) VALUES
 EQUAL   T2(J-ALPHA,I-BETA -> B-ALPHA,A-BETA) AMPLITUDES.

 ....... DONE WITH CC AMPLITUDE ITERATIONS .......
 STEP CPU TIME =     0.08 TOTAL CPU TIME =        0.1 (    0.0 MIN)
 TOTAL WALL CLOCK TIME=        0.3 SECONDS, CPU UTILIZATION IS  42.86%

 MEMORY REQUIRED FOR NONITERATIVE TRIPLES (T3WT2  ) IS        26136 WORDS.

                      SUMMARY OF RESULTS

      REFERENCE ENERGY:       -7.8670868939
        MBPT(2) ENERGY:       -7.8988078069   CORR.E=  -0.0317209130
        CCSD    ENERGY:       -7.9350588967   CORR.E=  -0.0679720028
        CCSD[T] ENERGY:       -7.9352637964   CORR.E=  -0.0681769025
        CCSD(T) ENERGY:       -7.9352459532   CORR.E=  -0.0681590593

 THE FOLLOWING METHOD AND ENERGY WILL BE CONSIDERED THE HIGHEST LEVEL RESULT:
 COUPLED-CLUSTER ENERGY E(   CCSD(T)) =       -7.9352459532

 ..... DONE WITH CC NON-ITERATIVE TRIPLES CORRECTIONS .....
 STEP CPU TIME =     0.00 TOTAL CPU TIME =        0.1 (    0.0 MIN)
 TOTAL WALL CLOCK TIME=        0.3 SECONDS, CPU UTILIZATION IS  42.86%
               580000  WORDS OF DYNAMIC MEMORY USED
 EXECUTION OF GAMESS TERMINATED NORMALLY Thu Jan 17 17:51:02 2019
 DDI: 263640 bytes (0.3 MB / 0 MWords) used by master data server.

 ----------------------------------------
 CPU timing information for all processes
 ========================================
 0: 0.93 + 0.33 = 0.126
 1: 0.01 + 0.02 = 0.03
 ----------------------------------------
 ddikick.x: exited gracefully.
unset echo
----- accounting info -----
Files used on the master node bach.ad64.riken.go.jp were:
-rw-------  1 maho  staff      258  1 17 17:51 .//LiH.631g/3.8/LiH.631g.CCSDT.3.8.gamess.F05
-rw-r--r--  1 maho  staff   180016  1 17 17:51 .//LiH.631g/3.8/LiH.631g.CCSDT.3.8.gamess.F08
-rw-r--r--  1 maho  staff   181704  1 17 17:51 .//LiH.631g/3.8/LiH.631g.CCSDT.3.8.gamess.F09
-rw-r--r--  1 maho  staff  1603280  1 17 17:51 .//LiH.631g/3.8/LiH.631g.CCSDT.3.8.gamess.F10
-rw-r--r--  1 maho  staff   388608  1 17 17:51 .//LiH.631g/3.8/LiH.631g.CCSDT.3.8.gamess.F70
-rw-r--r--  1 maho  staff   106560  1 17 17:51 .//LiH.631g/3.8/LiH.631g.CCSDT.3.8.gamess.F71
-rw-r--r--  1 maho  staff  2286144  1 17 17:51 .//LiH.631g/3.8/LiH.631g.CCSDT.3.8.gamess.F72
-rw-r--r--  1 maho  staff     1152  1 17 17:51 .//LiH.631g/3.8/LiH.631g.CCSDT.3.8.gamess.F73
-rw-r--r--  1 maho  staff    20736  1 17 17:51 .//LiH.631g/3.8/LiH.631g.CCSDT.3.8.gamess.F74
-rw-r--r--  1 maho  staff        0  1 17 17:51 .//LiH.631g/3.8/LiH.631g.CCSDT.3.8.gamess.F75
-rw-r--r--  1 maho  staff        0  1 17 17:51 .//LiH.631g/3.8/LiH.631g.CCSDT.3.8.gamess.F76
-rw-r--r--  1 maho  staff        0  1 17 17:51 .//LiH.631g/3.8/LiH.631g.CCSDT.3.8.gamess.F77
-rw-r--r--  1 maho  staff     7352  1 17 17:51 .//LiH.631g/3.8/LiH.631g.CCSDT.3.8.gamess.dat
-rw-------  1 maho  staff      258  1 17 17:51 .//LiH.631g/3.8/LiH.631g.CCSDT.3.8.gamess.inp
-rw-r--r--  1 maho  staff    36179  1 17 17:51 .//LiH.631g/3.8/LiH.631g.CCSDT.3.8.gamess.log
ls: No match.
ls: No match.
ls: No match.
2019年 1月17日 木曜日 17時51分05秒 JST
0.204u 0.131s 0:03.77 8.7%	0+0k 2+3io 0pf+0w
