----- GAMESS execution script 'rungms' -----
This job is running on host bach.ad64.riken.go.jp
under operating system Darwin at 2019年 1月17日 木曜日 17時54分02秒 JST
Available scratch disk space (Kbyte units) at beginning of the job is
Filesystem   1024-blocks       Used Available Capacity iused      ifree %iused  Mounted on
/dev/disk2s2  1953178672 1144755572 808423100    59%  984683 4293982596    0%   /Volumes/Users
GAMESS temporary binary files will be written to ./
GAMESS supplementary output files will be written to ./
Copying input file LiH.631g/5.0/LiH.631g.fullCI.5.0.gamess.inp to your run's scratch directory...
cp LiH.631g/5.0/LiH.631g.fullCI.5.0.gamess.inp .//LiH.631g/5.0/LiH.631g.fullCI.5.0.gamess.F05
unset echo
/Volumes/Users/maho/bin/gamess//ddikick.x /Volumes/Users/maho/bin/gamess//gamess.00.x LiH.631g/5.0/LiH.631g.fullCI.5.0.gamess -ddi 1 1 bach.ad64.riken.go.jp -scr ./

 Distributed Data Interface kickoff program.
 Initiating 1 compute processes on 1 nodes to run the following command:
 /Volumes/Users/maho/bin/gamess//gamess.00.x LiH.631g/5.0/LiH.631g.fullCI.5.0.gamess 

          ******************************************************
          *         GAMESS VERSION = 18 AUG 2016 (R1)          *
          *             FROM IOWA STATE UNIVERSITY             *
          * M.W.SCHMIDT, K.K.BALDRIDGE, J.A.BOATZ, S.T.ELBERT, *
          *   M.S.GORDON, J.H.JENSEN, S.KOSEKI, N.MATSUNAGA,   *
          *          K.A.NGUYEN, S.J.SU, T.L.WINDUS,           *
          *       TOGETHER WITH M.DUPUIS, J.A.MONTGOMERY       *
          *         J.COMPUT.CHEM.  14, 1347-1363(1993)        *
          **************** 64 BIT APPLE VERSION ****************

  SINCE 1993, STUDENTS AND POSTDOCS WORKING AT IOWA STATE UNIVERSITY
  AND ALSO IN THEIR VARIOUS JOBS AFTER LEAVING ISU HAVE MADE IMPORTANT
  CONTRIBUTIONS TO THE CODE:
     IVANA ADAMOVIC, CHRISTINE AIKENS, YURI ALEXEEV, POOJA ARORA,
     ANDREY ASADCHEV, ROB BELL, PRADIPTA BANDYOPADHYAY, JONATHAN BENTZ,
     BRETT BODE, KURT BRORSEN, CALEB CARLIN, GALINA CHABAN, WEI CHEN,
     CHEOL HO CHOI, PAUL DAY, ALBERT DEFUSCO, NUWAN DESILVA, TIM DUDLEY,
     DMITRI FEDOROV, GRAHAM FLETCHER, MARK FREITAG, KURT GLAESEMANN,
     DAN KEMP, GRANT MERRILL, NORIYUKI MINEZAWA, JONATHAN MULLIN,
     TAKESHI NAGATA, SEAN NEDD, HEATHER NETZLOFF, BOSILJKA NJEGIC, RYAN OLSON,
     MIKE PAK, SPENCER PRUITT, LUKE ROSKOP, JIM SHOEMAKER, LYUDMILA SLIPCHENKO,
     TONY SMITH, SAROM SOK LEANG, JIE SONG, TETSUYA TAKETSUGU, SIMON WEBB,
     PENG XU, SOOHAENG YOO, FEDERICO ZAHARIEV

  ADDITIONAL CODE HAS BEEN PROVIDED BY COLLABORATORS IN OTHER GROUPS:
     IOWA STATE UNIVERSITY:
          JOE IVANIC, AARON WEST, LAIMUTIS BYTAUTAS, KLAUS RUEDENBERG
     UNIVERSITY OF TOKYO: KIMIHIKO HIRAO, TAKAHITO NAKAJIMA,
          TAKAO TSUNEDA, MUNEAKI KAMIYA, SUSUMU YANAGISAWA,
          KIYOSHI YAGI, MAHITO CHIBA, SEIKEN TOKURA, NAOAKI KAWAKAMI
     UNIVERSITY OF AARHUS: FRANK JENSEN
     UNIVERSITY OF IOWA: VISVALDAS KAIRYS, HUI LI
     NATIONAL INST. OF STANDARDS AND TECHNOLOGY: WALT STEVENS, DAVID GARMER
     UNIVERSITY OF PISA: BENEDETTA MENNUCCI, JACOPO TOMASI
     UNIVERSITY OF MEMPHIS: HENRY KURTZ, PRAKASHAN KORAMBATH
     UNIVERSITY OF ALBERTA: TOBY ZENG, MARIUSZ KLOBUKOWSKI
     UNIVERSITY OF NEW ENGLAND: MARK SPACKMAN
     MIE UNIVERSITY: HIROAKI UMEDA
     NAT. INST. OF ADVANCED INDUSTRIAL SCIENCE AND TECHNOLOGY: KAZUO KITAURA
     MICHIGAN STATE UNIVERSITY:
          KAROL KOWALSKI, MARTA WLOCH, JEFFREY GOUR, JESSE LUTZ,
          WEI LI, PIOTR PIECUCH
     UNIVERSITY OF SILESIA: MONIKA MUSIAL, STANISLAW KUCHARSKI
     FACULTES UNIVERSITAIRES NOTRE-DAME DE LA PAIX:
          OLIVIER QUINET, BENOIT CHAMPAGNE
     UNIVERSITY OF CALIFORNIA - SANTA BARBARA: BERNARD KIRTMAN
     INSTITUTE FOR MOLECULAR SCIENCE:
          KAZUYA ISHIMURA, MICHIO KATOUDA, AND SHIGERU NAGASE
     UNIVERSITY OF NOTRE DAME: ANNA POMOGAEVA, DAN CHIPMAN
     KYUSHU UNIVERSITY:
          HARUYUKI NAKANO,
          FENG LONG GU, JACEK KORCHOWIEC, MARCIN MAKOWSKI, AND YURIKO AOKI,
          HIROTOSHI MORI AND EISAKU MIYOSHI
     PENNSYLVANIA STATE UNIVERSITY:
          TZVETELIN IORDANOV, CHET SWALINA, JONATHAN SKONE,
          SHARON HAMMES-SCHIFFER
     WASEDA UNIVERSITY:
          MASATO KOBAYASHI, TOMOKO AKAMA, TSUGUKI TOUMA,
          TAKESHI YOSHIKAWA, YASUHIRO IKABATA, JUNJI SEINO,
          YUYA NAKAJIMA, HIROMI NAKAI
     NANJING UNIVERSITY: SHUHUA LI
     UNIVERSITY OF NEBRASKA:
          PEIFENG SU, DEJUN SI, NANDUN THELLAMUREGE, YALI WANG, HUI LI
     UNIVERSITY OF ZURICH: ROBERTO PEVERATI, KIM BALDRIDGE
     N. COPERNICUS UNIVERSITY AND JACKSON STATE UNIVERSITY:
          MARIA BARYSZ
     UNIVERSITY OF COPENHAGEN: Jimmy Kromann, CASPER STEINMANN
     TOKYO INSTITUTE OF TECHNOLOGY: HIROYA NAKATA
     NAGOYA UNIVERSITY: YOSHIO NISHIMOTO, STEPHAN IRLE
     MOSCOW STATE UNIVERSITY: VLADIMIR MIRONOV

 EXECUTION OF GAMESS BEGUN Thu Jan 17 17:54:02 2019

            ECHO OF THE FIRST FEW INPUT CARDS -
 INPUT CARD> $CONTRL SCFTYP=RHF CITYP=ALDET $END                                            
 INPUT CARD> $GUESS  GUESS=HUCKEL $END                                                      
 INPUT CARD> $BASIS GBASIS=N31 NGAUSS=6 NDFUNC=1 NPFUNC=1 $END                              
 INPUT CARD> $CIDET SZ=0 GROUP=C2V NCORE=0 NACT=20 NELS=4 $END                              
 INPUT CARD> $DATA                                                                          
 INPUT CARD>LiH...HF...6-31G* basis                                                         
 INPUT CARD>Cnv   2                                                                         
 INPUT CARD>                                                                                
 INPUT CARD>Li    3.0    0.0      0.0     0.0                                               
 INPUT CARD>H     1.0    0.0      0.0     5.0                                               
 INPUT CARD> $END                                                                           
    1000000 WORDS OF MEMORY AVAILABLE

     BASIS OPTIONS
     -------------
     GBASIS=N31          IGAUSS=       6      POLAR=POPN31  
     NDFUNC=       1     NFFUNC=       0     DIFFSP=       F
     NPFUNC=       1      DIFFS=       F     BASNAM=        


     RUN TITLE
     ---------
 LiH...HF...6-31G* basis                                                         

 THE POINT GROUP OF THE MOLECULE IS CNV     
 THE ORDER OF THE PRINCIPAL AXIS IS     2

 ATOM      ATOMIC                      COORDINATES (BOHR)
           CHARGE         X                   Y                   Z
 LI          3.0     0.0000000000        0.0000000000        0.0000000000
 H           1.0     0.0000000000        0.0000000000        9.4486299386

          INTERNUCLEAR DISTANCES (ANGS.)
          ------------------------------

                1 LI         2 H     

   1 LI      0.0000000    5.0000000  
   2 H       5.0000000    0.0000000  

  * ... LESS THAN  3.000


     ATOMIC BASIS SET
     ----------------
 THE CONTRACTED PRIMITIVE FUNCTIONS HAVE BEEN UNNORMALIZED
 THE CONTRACTED BASIS FUNCTIONS ARE NOW NORMALIZED TO UNITY

  SHELL TYPE  PRIMITIVE        EXPONENT          CONTRACTION COEFFICIENT(S)

 LI        

      1   S       1           642.4189150    0.002142607810
      1   S       2            96.7985153    0.016208871501
      1   S       3            22.0911212    0.077315572504
      1   S       4             6.2010702    0.245786052013
      1   S       5             1.9351177    0.470189004025
      1   S       6             0.6367358    0.345470845019

      2   L       7             2.3249184   -0.035091745735    0.008941508043
      2   L       8             0.6324304   -0.191232843103    0.141009464046
      2   L       9             0.0790534    1.083987794916    0.945363695309

      3   L      10             0.0359620    1.000000000000    1.000000000000

      4   D      11             0.2000000    1.000000000000

 H         

      5   S      12            18.7311370    0.033494604338
      5   S      13             2.8253944    0.234726953484
      5   S      14             0.6401217    0.813757326146

      6   S      15             0.1612778    1.000000000000

      7   P      16             1.1000000    1.000000000000

 TOTAL NUMBER OF BASIS SET SHELLS             =    7
 NUMBER OF CARTESIAN GAUSSIAN BASIS FUNCTIONS =   20
 NUMBER OF ELECTRONS                          =    4
 CHARGE OF MOLECULE                           =    0
 SPIN MULTIPLICITY                            =    1
 NUMBER OF OCCUPIED ORBITALS (ALPHA)          =    2
 NUMBER OF OCCUPIED ORBITALS (BETA )          =    2
 TOTAL NUMBER OF ATOMS                        =    2
 THE NUCLEAR REPULSION ENERGY IS        0.3175063495

 THIS MOLECULE IS RECOGNIZED AS BEING LINEAR,
 ORBITAL LZ DEGENERACY TOLERANCE ETOLLZ= 1.00E-06

     $CONTRL OPTIONS
     ---------------
 SCFTYP=RHF          RUNTYP=ENERGY       EXETYP=RUN     
 MPLEVL=       0     CITYP =ALDET        CCTYP =NONE         VBTYP =NONE    
 DFTTYP=NONE         TDDFT =NONE    
 MULT  =       1     ICHARG=       0     NZVAR =       0     COORD =UNIQUE  
 PP    =NONE         RELWFN=NONE         LOCAL =NONE         NUMGRD=       F
 ISPHER=      -1     NOSYM =       0     MAXIT =      30     UNITS =ANGS    
 PLTORB=       F     MOLPLT=       F     AIMPAC=       F     FRIEND=        
 NPRINT=       7     IREST =       0     GEOM  =INPUT   
 NORMF =       0     NORMP =       0     ITOL  =      20     ICUT  =       9
 INTTYP=BEST         GRDTYP=BEST         QMTTOL= 1.0E-06

     $SYSTEM OPTIONS
     ---------------
  REPLICATED MEMORY=     1000000 WORDS (ON EVERY NODE).
 DISTRIBUTED MEMDDI=           0 MILLION WORDS IN AGGREGATE,
 MEMDDI DISTRIBUTED OVER   1 PROCESSORS IS           0 WORDS/PROCESSOR.
 TOTAL MEMORY REQUESTED ON EACH PROCESSOR=     1000000 WORDS.
 TIMLIM=      525600.00 MINUTES, OR     365.0 DAYS.
 PARALL= F  BALTYP=  DLB     KDIAG=    0  COREFL= F
 MXSEQ2=     300 MXSEQ3=     150  mem10=         0

          ----------------
          PROPERTIES INPUT
          ----------------

     MOMENTS            FIELD           POTENTIAL          DENSITY
 IEMOM =       1   IEFLD =       0   IEPOT =       0   IEDEN =       0
 WHERE =COMASS     WHERE =NUCLEI     WHERE =NUCLEI     WHERE =NUCLEI  
 OUTPUT=BOTH       OUTPUT=BOTH       OUTPUT=BOTH       OUTPUT=BOTH    
 IEMINT=       0   IEFINT=       0                     IEDINT=       0
                                                       MORB  =       0
          EXTRAPOLATION IN EFFECT
          SOSCF IN EFFECT
 ORBITAL PRINTING OPTION: NPREO=     1    20     2     1

     -------------------------------
     INTEGRAL TRANSFORMATION OPTIONS
     -------------------------------
     NWORD  =            0
     CUTOFF = 1.0E-09     MPTRAN =       0
     DIRTRF =       F     AOINTS =DUP     

          ----------------------
          INTEGRAL INPUT OPTIONS
          ----------------------
 NOPK  =       1 NORDER=       0 SCHWRZ=       F

     ------------------------------------------
     THE POINT GROUP IS CNV, NAXIS= 2, ORDER= 4
     ------------------------------------------

     DIMENSIONS OF THE SYMMETRY SUBSPACES ARE
 A1  =   11     A2  =    1     B1  =    4     B2  =    4

 ..... DONE SETTING UP THE RUN .....
 STEP CPU TIME =     0.00 TOTAL CPU TIME =        0.0 (    0.0 MIN)
 TOTAL WALL CLOCK TIME=        0.0 SECONDS, CPU UTILIZATION IS   0.00%

          ********************
          1 ELECTRON INTEGRALS
          ********************
 ...... END OF ONE-ELECTRON INTEGRALS ......
 STEP CPU TIME =     0.00 TOTAL CPU TIME =        0.0 (    0.0 MIN)
 TOTAL WALL CLOCK TIME=        0.0 SECONDS, CPU UTILIZATION IS   0.00%

          -------------
          GUESS OPTIONS
          -------------
          GUESS =HUCKEL            NORB  =       0          NORDER=       0
          MIX   =       F          PRTMO =       F          PUNMO =       F
          TOLZ  = 1.0E-08          TOLE  = 1.0E-05
          SYMDEN=       F          PURIFY=       F

 INITIAL GUESS ORBITALS GENERATED BY HUCKEL   ROUTINE.
 HUCKEL GUESS REQUIRES      4469 WORDS.

 SYMMETRIES FOR INITIAL GUESS ORBITALS FOLLOW.   BOTH SET(S).
     2 ORBITALS ARE OCCUPIED (    1 CORE ORBITALS).
     2=A1       3=A1       4=A1       5=A1       6=A1       7=A1       8=A1  
     9=A1      10=A1      11=A1      12=A2  
 ...... END OF INITIAL ORBITAL SELECTION ......
 STEP CPU TIME =     0.00 TOTAL CPU TIME =        0.0 (    0.0 MIN)
 TOTAL WALL CLOCK TIME=        0.0 SECONDS, CPU UTILIZATION IS   0.00%

                    ----------------------
                    AO INTEGRAL TECHNOLOGY
                    ----------------------
     S,P,L SHELL ROTATED AXIS INTEGRALS, REPROGRAMMED BY
        KAZUYA ISHIMURA (IMS) AND JOSE SIERRA (SYNSTAR).
     S,P,D,L SHELL ROTATED AXIS INTEGRALS PROGRAMMED BY
        KAZUYA ISHIMURA (INSTITUTE FOR MOLECULAR SCIENCE).
     S,P,D,F,G SHELL TO TOTAL QUARTET ANGULAR MOMENTUM SUM 5,
        ERIC PROGRAM BY GRAHAM FLETCHER (ELORET AND NASA ADVANCED
        SUPERCOMPUTING DIVISION, AMES RESEARCH CENTER).
     S,P,D,F,G,L SHELL GENERAL RYS QUADRATURE PROGRAMMED BY
        MICHEL DUPUIS (PACIFIC NORTHWEST NATIONAL LABORATORY).

          --------------------
          2 ELECTRON INTEGRALS
          --------------------

 THE -PK- OPTION IS OFF, THE INTEGRALS ARE NOT IN SUPERMATRIX FORM.
 STORING   15000 INTEGRALS/RECORD ON DISK, USING 12 BYTES/INTEGRAL.
 TWO ELECTRON INTEGRAL EVALUATION REQUIRES   90424 WORDS OF MEMORY.
 II,JST,KST,LST =  1  1  1  1 NREC =         1 INTLOC =    1
 II,JST,KST,LST =  2  1  1  1 NREC =         1 INTLOC =    2
 II,JST,KST,LST =  3  1  1  1 NREC =         1 INTLOC =   34
 II,JST,KST,LST =  4  1  1  1 NREC =         1 INTLOC =  214
 II,JST,KST,LST =  5  1  1  1 NREC =         1 INTLOC = 1189
 II,JST,KST,LST =  6  1  1  1 NREC =         1 INTLOC = 1765
 II,JST,KST,LST =  7  1  1  1 NREC =         1 INTLOC = 2583
 TOTAL NUMBER OF NONZERO TWO-ELECTRON INTEGRALS =                4756
          1 INTEGRAL RECORDS WERE STORED ON DISK FILE  8.
  ...... END OF TWO-ELECTRON INTEGRALS .....
 STEP CPU TIME =     0.02 TOTAL CPU TIME =        0.0 (    0.0 MIN)
 TOTAL WALL CLOCK TIME=        0.0 SECONDS, CPU UTILIZATION IS  66.67%

          --------------------------
                 RHF SCF CALCULATION
          --------------------------

     NUCLEAR ENERGY =         0.3175063495
     MAXIT =   30     NPUNCH=    2
     EXTRAP=T  DAMP=F  SHIFT=F  RSTRCT=F  DIIS=F  DEM=F  SOSCF=T
     DENSITY MATRIX CONV=  1.00E-06
     SOSCF WILL OPTIMIZE      36 ORBITAL ROTATIONS, SOGTOL=   0.250
     MEMORY REQUIRED FOR RHF ITERS=     33224 WORDS.

 ITER EX DEM     TOTAL ENERGY        E CHANGE  DENSITY CHANGE     ORB. GRAD
   1  0  0       -7.4810410051    -7.4810410051   1.026418312   0.000000000
          ---------------START SECOND ORDER SCF---------------
   2  1  0       -7.4531789285     0.0278620766   0.958150570   0.050630192
   3  2  0       -7.5245808565    -0.0714019280   0.993229976   0.070605633
 SOSCF IS SCALING ROTATION ANGLE MATRIX, SQCDF=    1.162945
   4  3  0       -7.6528721320    -0.1282912755   2.735894753   0.117081574
 SOSCF IS SCALING ROTATION ANGLE MATRIX, SQCDF=    0.203657
   5  4  0       -7.6251557142     0.0277164178   2.458287438   0.128193174
   6  5  0       -7.6450030874    -0.0198473732   2.092556413   0.097265860
   7  6  0       -7.6026636106     0.0423394767   2.322706204   0.129726512
   8  7  0       -7.6573878585    -0.0547242479   0.301288335   0.099615431
   9  8  0       -7.6697995100    -0.0124116515   1.002778225   0.104016265
  10  9  0       -7.7635792392    -0.0937797292   0.226718364   0.077939594
  11 10  0       -7.7947869943    -0.0312077551   0.232748895   0.031133084
  12 11  0       -7.8082115828    -0.0134245885   0.410287821   0.011469294
  13 12  0       -7.8187080174    -0.0104964346   0.328265711   0.015126755
  14 13  0       -7.8181738345     0.0005341829   0.335310582   0.021682565
  15 14  0       -7.8223243797    -0.0041505453   0.030883149   0.004701102
  16 15  0       -7.8227294911    -0.0004051114   0.018139261   0.001660501
  17 16  0       -7.8227801721    -0.0000506809   0.002129923   0.000195233
  18 17  0       -7.8227808494    -0.0000006773   0.000173690   0.000034339
  19 18  0       -7.8227808538    -0.0000000044   0.000040693   0.000005774
  20 19  0       -7.8227808541    -0.0000000003   0.000004613   0.000000955
  21 20  0       -7.8227808541    -0.0000000000   0.000000923   0.000000269
  22 21  0       -7.8227808541    -0.0000000000   0.000000043   0.000000041

          -----------------
          DENSITY CONVERGED
          -----------------
     TIME TO FORM FOCK OPERATORS=       0.0 SECONDS (       0.0 SEC/ITER)
     TIME TO SOLVE SCF EQUATIONS=       0.0 SECONDS (       0.0 SEC/ITER)

 FINAL RHF ENERGY IS       -7.8227808541 AFTER  22 ITERATIONS

 LZ VALUE ANALYSIS FOR THE MOS
 ----------------------------------------
 MO     1 (    1) HAS LZ(WEIGHT)= 0.00(100.0%) 
 MO     2 (    2) HAS LZ(WEIGHT)= 0.00(100.0%) 
 MO     3 (    3) HAS LZ(WEIGHT)= 0.00(100.0%) 
 MO     4 (    4) HAS LZ(WEIGHT)=-1.00( 50.0%)  1.00( 50.0%) 
 MO     5 (    4) HAS LZ(WEIGHT)=-1.00( 50.0%)  1.00( 50.0%) 
 MO     6 (    5) HAS LZ(WEIGHT)= 0.00(100.0%) 
 MO     7 (    6) HAS LZ(WEIGHT)= 0.00(100.0%) 
 MO     8 (    7) HAS LZ(WEIGHT)=-1.00( 50.0%)  1.00( 50.0%) 
 MO     9 (    7) HAS LZ(WEIGHT)=-1.00( 50.0%)  1.00( 50.0%) 
 MO    10 (    8) HAS LZ(WEIGHT)= 0.00(100.0%) 
 MO    11 (    9) HAS LZ(WEIGHT)=-2.00( 50.0%)  2.00( 50.0%) 
 MO    12 (    9) HAS LZ(WEIGHT)=-2.00( 50.0%)  2.00( 50.0%) 
 MO    13 (   10) HAS LZ(WEIGHT)=-1.00( 50.0%)  1.00( 50.0%) 
 MO    14 (   10) HAS LZ(WEIGHT)=-1.00( 50.0%)  1.00( 50.0%) 
 MO    15 (   11) HAS LZ(WEIGHT)= 0.00(100.0%) 
 MO    16 (   12) HAS LZ(WEIGHT)= 0.00(100.0%) 
 MO    17 (   13) HAS LZ(WEIGHT)= 0.00(100.0%) 
 MO    18 (   14) HAS LZ(WEIGHT)=-1.00( 50.0%)  1.00( 50.0%) 
 MO    19 (   14) HAS LZ(WEIGHT)=-1.00( 50.0%)  1.00( 50.0%) 
 MO    20 (   15) HAS LZ(WEIGHT)= 0.00(100.0%) 

          ------------
          EIGENVECTORS
          ------------

                      1          2          3          4          5
                   -2.5871    -0.1744    -0.0560     0.0177     0.0177
                     A1         A1         A1         B2         B1  
    1  LI 1  S    0.998769  -0.097692  -0.161277  -0.000000  -0.000000
    2  LI 1  S   -0.012098  -0.077411   0.125831  -0.000000  -0.000000
    3  LI 1  X    0.000000   0.000000  -0.000000  -0.000000   0.243265
    4  LI 1  Y    0.000000   0.000000  -0.000000   0.243265  -0.000000
    5  LI 1  Z   -0.001854  -0.042567  -0.052537  -0.000000  -0.000000
    6  LI 1  S    0.001833   0.507859   0.686680  -0.000000  -0.000000
    7  LI 1  X    0.000000   0.000000  -0.000000  -0.000000   0.794090
    8  LI 1  Y    0.000000   0.000000  -0.000000   0.794090  -0.000000
    9  LI 1  Z    0.001226   0.201521  -0.259365  -0.000000  -0.000000
   10  LI 1 XX    0.008738   0.036173   0.032232  -0.000000  -0.000000
   11  LI 1 YY    0.008738   0.036173   0.032232  -0.000000  -0.000000
   12  LI 1 ZZ    0.008659   0.041312   0.029662  -0.000000  -0.000000
   13  LI 1 XY    0.000000   0.000000  -0.000000  -0.000000  -0.000000
   14  LI 1 XZ    0.000000   0.000000  -0.000000  -0.000000  -0.019065
   15  LI 1 YZ    0.000000   0.000000  -0.000000  -0.019065  -0.000000
   16  H  2  S    0.000044   0.238201  -0.124962  -0.000000  -0.000000
   17  H  2  S   -0.000155   0.629953  -0.338500  -0.000000  -0.000000
   18  H  2  X    0.000000   0.000000  -0.000000  -0.000000   0.000600
   19  H  2  Y    0.000000   0.000000  -0.000000   0.000600  -0.000000
   20  H  2  Z    0.000009  -0.001034  -0.000700  -0.000000  -0.000000

                      6          7          8          9         10
                    0.0372     0.1484     0.1624     0.1624     0.2000
                     A1         A1         B1         B2         A1  
    1  LI 1  S   -0.027032   0.060817  -0.000000  -0.000000   0.056065
    2  LI 1  S    0.384707   2.417899  -0.000000  -0.000000   2.109010
    3  LI 1  X   -0.000000  -0.000000   1.655794  -0.000000   0.000000
    4  LI 1  Y   -0.000000  -0.000000  -0.000000   1.655794   0.000000
    5  LI 1  Z    0.314908  -1.121152  -0.000000  -0.000000   1.224070
    6  LI 1  S   -0.122103  -1.882855  -0.000000  -0.000000  -1.677629
    7  LI 1  X   -0.000000  -0.000000  -1.473838  -0.000000   0.000000
    8  LI 1  Y   -0.000000  -0.000000  -0.000000  -1.473838   0.000000
    9  LI 1  Z    0.668218   0.954693  -0.000000  -0.000000  -1.203918
   10  LI 1 XX   -0.010710  -0.234379  -0.000000  -0.000000  -0.167154
   11  LI 1 YY   -0.010710  -0.234379  -0.000000  -0.000000  -0.167154
   12  LI 1 ZZ   -0.055115  -0.202406  -0.000000  -0.000000  -0.203098
   13  LI 1 XY   -0.000000  -0.000000  -0.000000  -0.000000   0.000000
   14  LI 1 XZ   -0.000000  -0.000000  -0.028409  -0.000000   0.000000
   15  LI 1 YZ   -0.000000  -0.000000  -0.000000  -0.028409   0.000000
   16  H  2  S   -0.089331   0.004743  -0.000000  -0.000000   0.050925
   17  H  2  S   -0.299881  -0.030178  -0.000000  -0.000000   0.233885
   18  H  2  X   -0.000000  -0.000000  -0.000723  -0.000000   0.000000
   19  H  2  Y   -0.000000  -0.000000  -0.000000  -0.000723   0.000000
   20  H  2  Z   -0.002106   0.000266  -0.000000  -0.000000   0.003191

                     11         12         13         14         15
                    0.4950     0.4950     0.4981     0.4981     0.4997
                     A1         A2         B2         B1         A1  
    1  LI 1  S    0.000000   0.000000  -0.000000  -0.000000  -0.000517
    2  LI 1  S    0.000000   0.000000  -0.000000  -0.000000   0.019519
    3  LI 1  X    0.000000   0.000000  -0.000000   0.051709   0.000000
    4  LI 1  Y    0.000000   0.000000   0.051709  -0.000000   0.000000
    5  LI 1  Z    0.000000   0.000000  -0.000000  -0.000000   0.062843
    6  LI 1  S    0.000000   0.000000  -0.000000  -0.000000  -0.007245
    7  LI 1  X    0.000000   0.000000  -0.000000  -0.026748   0.000000
    8  LI 1  Y    0.000000   0.000000  -0.026748  -0.000000   0.000000
    9  LI 1  Z    0.000000   0.000000  -0.000000  -0.000000  -0.030894
   10  LI 1 XX    0.866025   0.000000  -0.000000  -0.000000  -0.502608
   11  LI 1 YY   -0.866025   0.000000  -0.000000  -0.000000  -0.502608
   12  LI 1 ZZ   -0.000000   0.000000  -0.000000  -0.000000   0.995903
   13  LI 1 XY    0.000000   1.000000  -0.000000  -0.000000   0.000000
   14  LI 1 XZ    0.000000   0.000000  -0.000000   0.999415   0.000000
   15  LI 1 YZ    0.000000   0.000000   0.999415  -0.000000   0.000000
   16  H  2  S    0.000000   0.000000  -0.000000  -0.000000  -0.010808
   17  H  2  S    0.000000   0.000000  -0.000000  -0.000000  -0.000733
   18  H  2  X    0.000000   0.000000  -0.000000   0.000113   0.000000
   19  H  2  Y    0.000000   0.000000   0.000113  -0.000000   0.000000
   20  H  2  Z    0.000000   0.000000  -0.000000  -0.000000  -0.000274

                     16         17         18         19         20
                    1.1352     1.1932     2.4672     2.4672     2.4703
                     A1         A1         B2         B1         A1  
    1  LI 1  S    0.090185   0.073263  -0.000000  -0.000000  -0.004840
    2  LI 1  S    7.761332   5.448515  -0.000000  -0.000000  -0.234807
    3  LI 1  X    0.000000   0.000000  -0.000000   0.007682  -0.000000
    4  LI 1  Y    0.000000   0.000000   0.007682  -0.000000  -0.000000
    5  LI 1  Z   -0.046501   0.123711  -0.000000  -0.000000  -0.036061
    6  LI 1  S   -2.353029  -1.799697  -0.000000  -0.000000   0.102670
    7  LI 1  X    0.000000   0.000000  -0.000000  -0.010101  -0.000000
    8  LI 1  Y    0.000000   0.000000  -0.010101  -0.000000  -0.000000
    9  LI 1  Z    0.073739  -0.178469  -0.000000  -0.000000   0.050160
   10  LI 1 XX   -2.604575  -1.765103  -0.000000  -0.000000   0.066203
   11  LI 1 YY   -2.604575  -1.765103  -0.000000  -0.000000   0.066203
   12  LI 1 ZZ   -2.598576  -1.777108  -0.000000  -0.000000   0.066748
   13  LI 1 XY    0.000000   0.000000  -0.000000  -0.000000  -0.000000
   14  LI 1 XZ    0.000000   0.000000  -0.000000  -0.000123  -0.000000
   15  LI 1 YZ    0.000000   0.000000  -0.000123  -0.000000  -0.000000
   16  H  2  S    0.697595  -1.103068  -0.000000  -0.000000   0.008356
   17  H  2  S   -0.528189   0.974976  -0.000000  -0.000000  -0.015802
   18  H  2  X    0.000000   0.000000  -0.000000   1.000013  -0.000000
   19  H  2  Y    0.000000   0.000000   1.000013  -0.000000  -0.000000
   20  H  2  Z    0.005554   0.007161  -0.000000  -0.000000   1.000432
 ...... END OF RHF CALCULATION ......
 STEP CPU TIME =     0.01 TOTAL CPU TIME =        0.0 (    0.0 MIN)
 TOTAL WALL CLOCK TIME=        0.0 SECONDS, CPU UTILIZATION IS  75.00%

     ----------------------------------------------------------------
     PROPERTY VALUES FOR THE RHF   SELF-CONSISTENT FIELD WAVEFUNCTION
     ----------------------------------------------------------------

          -----------------
          ENERGY COMPONENTS
          -----------------

         WAVEFUNCTION NORMALIZATION =       1.0000000000

                ONE ELECTRON ENERGY =     -10.7574763428
                TWO ELECTRON ENERGY =       2.6171891392
           NUCLEAR REPULSION ENERGY =       0.3175063495
                                      ------------------
                       TOTAL ENERGY =      -7.8227808541

 ELECTRON-ELECTRON POTENTIAL ENERGY =       2.6171891392
  NUCLEUS-ELECTRON POTENTIAL ENERGY =     -18.5890380997
   NUCLEUS-NUCLEUS POTENTIAL ENERGY =       0.3175063495
                                      ------------------
             TOTAL POTENTIAL ENERGY =     -15.6543426110
               TOTAL KINETIC ENERGY =       7.8315617569
                 VIRIAL RATIO (V/T) =       1.9988787801

  ...... PI ENERGY ANALYSIS ......

 ENERGY ANALYSIS:
            FOCK ENERGY=     -5.5230980521
          BARE H ENERGY=    -10.7574763428
     ELECTRONIC ENERGY =     -8.1402871974
         KINETIC ENERGY=      7.8315617569
          N-N REPULSION=      0.3175063495
           TOTAL ENERGY=     -7.8227808479
        SIGMA PART(1+2)=     -8.1402871974
               (K,V1,2)=      7.8315617569    -18.5890380997      2.6171891453
           PI PART(1+2)=      0.0000000000
               (K,V1,2)=      0.0000000000      0.0000000000      0.0000000000
  SIGMA SKELETON, ERROR=     -7.8227808479      0.0000000000
             MIXED PART= 0.00000E+00 0.00000E+00 0.00000E+00 0.00000E+00
 ...... END OF PI ENERGY ANALYSIS ......

          ---------------------------------------
          MULLIKEN AND LOWDIN POPULATION ANALYSES
          ---------------------------------------

               ----- POPULATIONS IN EACH AO -----
                             MULLIKEN      LOWDIN
              1  LI 1  S      1.99809     1.98031
              2  LI 1  S     -0.07435     0.10778
              3  LI 1  X      0.00000     0.00000
              4  LI 1  Y      0.00000     0.00000
              5  LI 1  Z     -0.01165     0.00506
              6  LI 1  S      0.53032     0.33454
              7  LI 1  X      0.00000     0.00000
              8  LI 1  Y      0.00000     0.00000
              9  LI 1  Z      0.10821     0.08874
             10  LI 1 XX      0.02351     0.03170
             11  LI 1 YY      0.02351     0.03170
             12  LI 1 ZZ      0.02700     0.03423
             13  LI 1 XY      0.00000     0.00000
             14  LI 1 XZ      0.00000     0.00000
             15  LI 1 YZ      0.00000     0.00000
             16  H  2  S      0.31821     0.39944
             17  H  2  S      1.05714     0.98646
             18  H  2  X      0.00000     0.00000
             19  H  2  Y      0.00000     0.00000
             20  H  2  Z      0.00001     0.00004

          ----- MULLIKEN ATOMIC OVERLAP POPULATIONS -----
          (OFF-DIAGONAL ELEMENTS NEED TO BE MULTIPLIED BY 2)

             1           2

    1    2.5515553
    2    0.0730793   1.3022862

          TOTAL MULLIKEN AND LOWDIN ATOMIC POPULATIONS
       ATOM         MULL.POP.    CHARGE          LOW.POP.     CHARGE
    1 LI            2.624635    0.375365         2.614063    0.385937
    2 H             1.375365   -0.375365         1.385937   -0.385937

          ---------------------
          ELECTROSTATIC MOMENTS
          ---------------------

 POINT   1           X           Y           Z (BOHR)    CHARGE
                 0.000000    0.000000    1.186786        0.00 (A.U.)
         DX          DY          DZ         /D/  (DEBYE)
     0.000000    0.000000  -12.464736   12.464736
 ...... END OF PROPERTY EVALUATION ......
 STEP CPU TIME =     0.01 TOTAL CPU TIME =        0.0 (    0.0 MIN)
 TOTAL WALL CLOCK TIME=        0.0 SECONDS, CPU UTILIZATION IS  80.00%

 DETERMINANT CI OPTIONS   NRNFG   NPFLG
 INTEGRAL TRANSFORMATION    1       0
 DIAGONALIZE HAMILTONIAN    1       0
 FORM 1E- DENSITY MATRIX    1       0
 FORM 2E- DENSITY MATRIX    0       0

     --------------------------------------------------
          AMES LABORATORY DETERMINANTAL FULL CI
     PROGRAM WRITTEN BY JOE IVANIC AND KLAUS RUEDENBERG
     --------------------------------------------------

 THE POINT GROUP                  =   C2V     
 THE STATE SYMMETRY               =   A1      
 NUMBER OF CORE ORBITALS          =    0
 NUMBER OF ACTIVE ORBITALS        =   20
 NUMBER OF ALPHA ELECTRONS        =    2 (   2 ACTIVE)
 NUMBER OF BETA ELECTRONS         =    2 (   2 ACTIVE)
 NUMBER OF OCCUPIED ORBITALS      =   20
 NUMBER OF CI STATES REQUESTED    =    1
 NUMBER OF CI STARTING VECTORS    =    1
 MAX. NO. OF CI EXPANSION VECTORS =   10
 SIZE OF INITIAL CI GUESS MATRIX  =  300
 MAX. NO. OF CI ITERS/STATE       =  100
 CI DIAGONALIZATION CRITERION     = 1.00E-06
 CI PROPERTIES WILL BE FOUND FOR ROOT NUMBER   1
 1E- DENSITY MATRIX OPTIONS ARE 1

 CORRELATION ENERGY ANALYSIS      =    F

 SYMMETRIES FOR THE   0 CORE,  20 ACTIVE ARE

   ACTIVE= A1    A1    A1    B2    B1    A1    A1    B1    B2    A1  
           A1    A2    B2    B1    A1    A1    A1    B2    B1    A1  

     --------------------------------------------
     PARTIAL TWO ELECTRON INTEGRAL TRANSFORMATION
     --------------------------------------------

 NUMBER OF CORE MOLECULAR ORBITALS     =    0
 NUMBER OF OCCUPIED MOLECULAR ORBITALS =   20
 TOTAL NUMBER OF MOLECULAR ORBITALS    =   20
 TOTAL NUMBER OF ATOMIC ORBITALS       =   20
 THRESHOLD FOR KEEPING TRANSFORMED 2E- INTEGRALS = 1.000E-09
 AO INTEGRALS WILL BE READ IN FROM DISK...

 PLAN A: REQUIREMENTS FOR FULLY IN-MEMORY TRANSFORMATION:
 # OF WORDS AVAILABLE =              1000000
 # OF WORDS NEEDED    =               146042

 CHOOSING IN MEMORY PARTIAL TRANSFORMATION...
 TOTAL NUMBER OF TRANSFORMED 2E- INTEGRALS KEPT =         5962
 ... END OF INTEGRAL TRANSFORMATION ...
 STEP CPU TIME =     0.00 TOTAL CPU TIME =        0.0 (    0.0 MIN)
 TOTAL WALL CLOCK TIME=        0.0 SECONDS, CPU UTILIZATION IS  80.00%

     --------------------------------------------------
          AMES LABORATORY DETERMINANTAL FULL CI
     PROGRAM WRITTEN BY JOE IVANIC AND KLAUS RUEDENBERG
     --------------------------------------------------

 THE NUMBER OF DETERMINANTS HAVING SPACE SYMMETRY A1 
 IN POINT GROUP C2V  WITH SZ=  0.0 IS           9826
 THE DETERMINANT FULL CI REQUIRES          451749 WORDS
 INITIAL CI VECTOR GUESS TIME  :          0.0
 INITIAL FULL CI ITERATION TIME:          0.0

 ITERATION      ENERGY           GRADIENT
     0       -7.9302719831     0.04558582
     1       -7.9306107932     0.00282665
     2       -7.9306132590     0.00082057
     3       -7.9306134652     0.00017710
     4       -7.9306134824     0.00006372
     5       -7.9306134856     0.00002864
     6       -7.9306134864     0.00001465
     7       -7.9306134867     0.00000852
     8       -7.9306134867     0.00000346
     9       -7.9306134867     0.00000118
    10       -7.9306134867     0.00000028

 CONVERGED STATE    1 ENERGY=       -7.9306134867 IN   10 ITERS

 ALL STATES CONVERGED.

 CI EIGENVECTORS WILL BE LABELED IN GROUP=C2V     
 PRINTING CI COEFFICIENTS LARGER THAN 5.000E-02

 STATE   1  ENERGY=        -7.9306134867  S=  0.00  SZ=  0.00  SPACE SYM=A1  

        ALPHA         |        BETA          | CI COEFFICIENT
----------------------|----------------------|---------------
 11000000000000000000 | 11000000000000000000 |   0.6449997286
 10100000000000000000 | 10100000000000000000 |  -0.4976990455
 11000000000000000000 | 10100000000000000000 |  -0.3290776039
 10100000000000000000 | 11000000000000000000 |  -0.3290776039
 10100000000000000000 | 10000100000000000000 |  -0.2132570152
 10000100000000000000 | 10100000000000000000 |  -0.2132570152
 10000100000000000000 | 10000100000000000000 |  -0.0739444934
 11000000000000000000 | 10000000010000000000 |   0.0558384471
 10000000010000000000 | 11000000000000000000 |   0.0558384471
 10100000000000000000 | 10000000000000001000 |   0.0532550751
 10000000000000001000 | 10100000000000000000 |   0.0532550751
 ..... DONE WITH DETERMINANT CI COMPUTATION .....
 STEP CPU TIME =     0.22 TOTAL CPU TIME =        0.3 (    0.0 MIN)
 TOTAL WALL CLOCK TIME=        0.3 SECONDS, CPU UTILIZATION IS  78.79%

     ---------------------------
     ONE PARTICLE DENSITY MATRIX
     ---------------------------

 DENSITY MATRIX WILL BE SAVED FOR   1-TH STATE WITH S= 0.00

 CI EIGENSTATE   1 TOTAL ENERGY =       -7.9306134867

          NATURAL ORBITALS IN ATOMIC ORBITAL BASIS
          ----------------------------------------

                      1          2          3          4          5
                    1.9998     1.1119     0.8880     0.0001     0.0001
                     A1         A1         A1         A1         B2  
    1  LI 1  S    0.998521  -0.130534  -0.134974  -0.001772   0.000000
    2  LI 1  S   -0.006595   0.185157   0.230401  -0.179951   0.000000
    3  LI 1  X    0.000000  -0.000000   0.000000   0.000000   0.000000
    4  LI 1  Y    0.000000  -0.000000   0.000000   0.000000   1.553461
    5  LI 1  Z   -0.000082  -0.006598   0.005702   1.503737   0.000000
    6  LI 1  S    0.000472   0.488541   0.482277   0.083456   0.000000
    7  LI 1  X    0.000000  -0.000000   0.000000   0.000000   0.000000
    8  LI 1  Y    0.000000  -0.000000   0.000000   0.000000  -0.873173
    9  LI 1  Z    0.000059   0.020493  -0.006151  -0.764953   0.000000
   10  LI 1 XX    0.007656   0.021195   0.018449   0.031753   0.000000
   11  LI 1 YY    0.007656   0.021195   0.018449   0.031753   0.000000
   12  LI 1 ZZ    0.007656   0.022457   0.017485   0.063095   0.000000
   13  LI 1 XY    0.000000  -0.000000   0.000000   0.000000   0.000000
   14  LI 1 XZ    0.000000  -0.000000   0.000000   0.000000   0.000000
   15  LI 1 YZ    0.000000  -0.000000   0.000000   0.000000   0.005882
   16  H  2  S    0.000040   0.295840  -0.309454  -0.048954   0.000000
   17  H  2  S    0.000152   0.468749  -0.468157   0.102764   0.000000
   18  H  2  X    0.000000  -0.000000   0.000000   0.000000   0.000000
   19  H  2  Y    0.000000  -0.000000   0.000000   0.000000   0.016644
   20  H  2  Z   -0.000000   0.000003   0.000055  -0.059221   0.000000

                      6          7          8          9         10
                    0.0001     0.0001     0.0000     0.0000     0.0000
                     B1         A1         A1         B1         B2  
    1  LI 1  S    0.000000   0.146898   0.010336  -0.000000  -0.000000
    2  LI 1  S    0.000000   9.500659   0.972259  -0.000000  -0.000000
    3  LI 1  X    1.553461   0.000000  -0.000000  -0.596233  -0.000000
    4  LI 1  Y    0.000000   0.000000  -0.000000  -0.000000  -0.596233
    5  LI 1  Z    0.000000   0.110523  -0.732234  -0.000000  -0.000000
    6  LI 1  S    0.000000  -3.901454  -0.221140  -0.000000  -0.000000
    7  LI 1  X   -0.873173   0.000000  -0.000000   1.350669  -0.000000
    8  LI 1  Y    0.000000   0.000000  -0.000000  -0.000000   1.350669
    9  LI 1  Z    0.000000  -0.143536   1.393242  -0.000000  -0.000000
   10  LI 1 XX    0.000000  -2.684141  -0.431318  -0.000000  -0.000000
   11  LI 1 YY    0.000000  -2.684141  -0.431318  -0.000000  -0.000000
   12  LI 1 ZZ    0.000000  -2.694992  -0.239283  -0.000000  -0.000000
   13  LI 1 XY    0.000000   0.000000  -0.000000  -0.000000  -0.000000
   14  LI 1 XZ    0.005882   0.000000  -0.000000   0.100462  -0.000000
   15  LI 1 YZ    0.000000   0.000000  -0.000000  -0.000000   0.100462
   16  H  2  S    0.000000  -0.007111  -0.145985  -0.000000  -0.000000
   17  H  2  S    0.000000   0.129297  -0.029509  -0.000000  -0.000000
   18  H  2  X    0.016644   0.000000  -0.000000   0.315058  -0.000000
   19  H  2  Y    0.000000   0.000000  -0.000000  -0.000000   0.315058
   20  H  2  Z    0.000000   0.008115  -0.331520  -0.000000  -0.000000

                     11         12         13         14         15
                    0.0000     0.0000     0.0000     0.0000     0.0000
                     A1         B2         B1         A1         A1  
    1  LI 1  S   -0.012362   0.000000   0.000000  -0.001700   0.000000
    2  LI 1  S   -0.379083   0.000000   0.000000  -0.432310  -0.000001
    3  LI 1  X   -0.000000   0.000000   0.182520  -0.000000  -0.000000
    4  LI 1  Y   -0.000000   0.182520   0.000000  -0.000000  -0.000000
    5  LI 1  Z   -0.113636   0.000000   0.000000  -0.226955  -0.000000
    6  LI 1  S    0.177055   0.000000   0.000000   0.002030  -0.000000
    7  LI 1  X   -0.000000   0.000000  -0.456260  -0.000000  -0.000000
    8  LI 1  Y   -0.000000  -0.456260   0.000000  -0.000000  -0.000000
    9  LI 1  Z    0.234388   0.000000   0.000000   0.558127   0.000000
   10  LI 1 XX    0.092518   0.000000   0.000000   0.507475   0.866026
   11  LI 1 YY    0.092517   0.000000   0.000000   0.507476  -0.866025
   12  LI 1 ZZ    0.158817   0.000000   0.000000  -0.378868   0.000001
   13  LI 1 XY   -0.000000   0.000000   0.000000  -0.000000  -0.000000
   14  LI 1 XZ   -0.000000   0.000000   0.465723  -0.000000  -0.000000
   15  LI 1 YZ   -0.000000   0.465723   0.000000  -0.000000  -0.000000
   16  H  2  S    1.246963   0.000000   0.000000   0.127387  -0.000001
   17  H  2  S   -1.171875   0.000000   0.000000  -0.179426   0.000001
   18  H  2  X   -0.000000   0.000000   0.823143  -0.000000  -0.000000
   19  H  2  Y   -0.000000   0.823143   0.000000  -0.000000  -0.000000
   20  H  2  Z   -0.145284   0.000000   0.000000   0.700309   0.000000

                     16         17         18         19         20
                    0.0000     0.0000     0.0000     0.0000     0.0000
                     A2         B2         B1         A1         A1  
    1  LI 1  S    0.000000  -0.000000  -0.000000  -0.001048  -0.006649
    2  LI 1  S    0.000000  -0.000000  -0.000000  -0.329750   2.945727
    3  LI 1  X    0.000000  -0.000000  -0.038947  -0.000000   0.000000
    4  LI 1  Y    0.000000  -0.038947  -0.000000  -0.000000   0.000000
    5  LI 1  Z    0.000000  -0.000000  -0.000000  -0.083892   0.025444
    6  LI 1  S    0.000000  -0.000000  -0.000000  -0.003363   0.332197
    7  LI 1  X    0.000000  -0.000000   0.093194  -0.000000   0.000000
    8  LI 1  Y    0.000000   0.093194  -0.000000  -0.000000   0.000000
    9  LI 1  Z    0.000000  -0.000000  -0.000000   0.197231  -0.057755
   10  LI 1 XX    0.000000  -0.000000  -0.000000  -0.233556  -1.590178
   11  LI 1 YY    0.000000  -0.000000  -0.000000  -0.233556  -1.590179
   12  LI 1 ZZ    0.000000  -0.000000  -0.000000   0.958827  -1.606768
   13  LI 1 XY    1.000000  -0.000000  -0.000000  -0.000000   0.000000
   14  LI 1 XZ    0.000000  -0.000000   0.879190  -0.000000   0.000000
   15  LI 1 YZ    0.000000   0.879190  -0.000000  -0.000000   0.000000
   16  H  2  S    0.000000  -0.000000  -0.000000   0.054796   0.073121
   17  H  2  S    0.000000  -0.000000  -0.000000  -0.073816  -0.093799
   18  H  2  X    0.000000  -0.000000  -0.472147  -0.000000   0.000000
   19  H  2  Y    0.000000  -0.472147  -0.000000  -0.000000   0.000000
   20  H  2  Z    0.000000  -0.000000  -0.000000   0.586223   0.179686
 ..... DONE WITH ONE PARTICLE DENSITY MATRIX .....
 STEP CPU TIME =     0.01 TOTAL CPU TIME =        0.3 (    0.0 MIN)
 TOTAL WALL CLOCK TIME=        0.3 SECONDS, CPU UTILIZATION IS  81.82%

     --------------------------------------------------------
     ALDET CI PROPERTIES...FOR THE WAVEFUNCTION OF STATE    1
               USING THE EXPECTATION VALUE DENSITY
     --------------------------------------------------------

          -----------------
          ENERGY COMPONENTS
          -----------------

         WAVEFUNCTION NORMALIZATION =       1.0000000000

                ONE ELECTRON ENERGY =     -10.8589806847
                TWO ELECTRON ENERGY =       2.6108608484
           NUCLEAR REPULSION ENERGY =       0.3175063495
                                      ------------------
                       TOTAL ENERGY =      -7.9306134867

 ELECTRON-ELECTRON POTENTIAL ENERGY =       2.6108608484
  NUCLEUS-ELECTRON POTENTIAL ENERGY =     -18.8198170212
   NUCLEUS-NUCLEUS POTENTIAL ENERGY =       0.3175063495
                                      ------------------
             TOTAL POTENTIAL ENERGY =     -15.8914498232
               TOTAL KINETIC ENERGY =       7.9608363365
                 VIRIAL RATIO (V/T) =       1.9962035585

          ---------------------------------------
          MULLIKEN AND LOWDIN POPULATION ANALYSES
          ---------------------------------------

               ----- POPULATIONS IN EACH AO -----
                             MULLIKEN      LOWDIN
              1  LI 1  S      1.99845     1.98614
              2  LI 1  S      0.27352     0.27136
              3  LI 1  X      0.00008     0.00006
              4  LI 1  Y      0.00008     0.00006
              5  LI 1  Z     -0.00016     0.00009
              6  LI 1  S      0.66656     0.47890
              7  LI 1  X     -0.00001     0.00001
              8  LI 1  Y     -0.00001     0.00001
              9  LI 1  Z      0.00263     0.00489
             10  LI 1 XX      0.01993     0.08711
             11  LI 1 YY      0.01993     0.08711
             12  LI 1 ZZ      0.02018     0.08730
             13  LI 1 XY      0.00000     0.00000
             14  LI 1 XZ      0.00000     0.00000
             15  LI 1 YZ      0.00000     0.00000
             16  H  2  S      0.36926     0.40081
             17  H  2  S      0.62956     0.59614
             18  H  2  X      0.00000     0.00000
             19  H  2  Y      0.00000     0.00000
             20  H  2  Z      0.00000     0.00001

          ----- MULLIKEN ATOMIC OVERLAP POPULATIONS -----
          (OFF-DIAGONAL ELEMENTS NEED TO BE MULTIPLIED BY 2)

             1           2

    1    2.9960382
    2    0.0051405   0.9936808

          TOTAL MULLIKEN AND LOWDIN ATOMIC POPULATIONS
       ATOM         MULL.POP.    CHARGE          LOW.POP.     CHARGE
    1 LI            3.001179   -0.001179         3.003039   -0.003039
    2 H             0.998821    0.001179         0.996961    0.003039

          ---------------------
          ELECTROSTATIC MOMENTS
          ---------------------

 POINT   1           X           Y           Z (BOHR)    CHARGE
                 0.000000    0.000000    1.186786        0.00 (A.U.)
         DX          DY          DZ         /D/  (DEBYE)
     0.000000    0.000000   -0.185470    0.185470
 ...... END OF PROPERTY EVALUATION ......
 STEP CPU TIME =     0.00 TOTAL CPU TIME =        0.3 (    0.0 MIN)
 TOTAL WALL CLOCK TIME=        0.3 SECONDS, CPU UTILIZATION IS  81.82%
               580000  WORDS OF DYNAMIC MEMORY USED
 EXECUTION OF GAMESS TERMINATED NORMALLY Thu Jan 17 17:54:02 2019
 DDI: 263640 bytes (0.3 MB / 0 MWords) used by master data server.

 ----------------------------------------
 CPU timing information for all processes
 ========================================
 0: 0.222 + 0.54 = 0.276
 1: 0.10 + 0.44 = 0.54
 ----------------------------------------
 ddikick.x: exited gracefully.
unset echo
----- accounting info -----
Files used on the master node bach.ad64.riken.go.jp were:
-rw-------  1 maho  staff      280  1 17 17:54 .//LiH.631g/5.0/LiH.631g.fullCI.5.0.gamess.F05
-rw-r--r--  1 maho  staff   180016  1 17 17:54 .//LiH.631g/5.0/LiH.631g.fullCI.5.0.gamess.F08
-rw-r--r--  1 maho  staff   181704  1 17 17:54 .//LiH.631g/5.0/LiH.631g.fullCI.5.0.gamess.F09
-rw-r--r--  1 maho  staff  1832320  1 17 17:54 .//LiH.631g/5.0/LiH.631g.fullCI.5.0.gamess.F10
-rw-r--r--  1 maho  staff    78640  1 17 17:54 .//LiH.631g/5.0/LiH.631g.fullCI.5.0.gamess.F12
-rw-r--r--  1 maho  staff    14499  1 17 17:54 .//LiH.631g/5.0/LiH.631g.fullCI.5.0.gamess.dat
-rw-------  1 maho  staff      280  1 17 17:54 .//LiH.631g/5.0/LiH.631g.fullCI.5.0.gamess.inp
-rw-r--r--  1 maho  staff    44160  1 17 17:54 .//LiH.631g/5.0/LiH.631g.fullCI.5.0.gamess.log
ls: No match.
ls: No match.
ls: No match.
2019年 1月17日 木曜日 17時54分05秒 JST
0.338u 0.189s 0:03.53 14.4%	0+0k 1+1io 0pf+0w
