----- GAMESS execution script 'rungms' -----
This job is running on host bach.ad64.riken.go.jp
under operating system Darwin at 2019年 1月17日 木曜日 17時53分56秒 JST
Available scratch disk space (Kbyte units) at beginning of the job is
Filesystem   1024-blocks       Used Available Capacity iused      ifree %iused  Mounted on
/dev/disk2s2  1953178672 1144755524 808423148    59%  984678 4293982601    0%   /Volumes/Users
GAMESS temporary binary files will be written to ./
GAMESS supplementary output files will be written to ./
Copying input file LiH.631g/5.0/LiH.631g.MP2.5.0.gamess.inp to your run's scratch directory...
cp LiH.631g/5.0/LiH.631g.MP2.5.0.gamess.inp .//LiH.631g/5.0/LiH.631g.MP2.5.0.gamess.F05
unset echo
/Volumes/Users/maho/bin/gamess//ddikick.x /Volumes/Users/maho/bin/gamess//gamess.00.x LiH.631g/5.0/LiH.631g.MP2.5.0.gamess -ddi 1 1 bach.ad64.riken.go.jp -scr ./

 Distributed Data Interface kickoff program.
 Initiating 1 compute processes on 1 nodes to run the following command:
 /Volumes/Users/maho/bin/gamess//gamess.00.x LiH.631g/5.0/LiH.631g.MP2.5.0.gamess 

          ******************************************************
          *         GAMESS VERSION = 18 AUG 2016 (R1)          *
          *             FROM IOWA STATE UNIVERSITY             *
          * M.W.SCHMIDT, K.K.BALDRIDGE, J.A.BOATZ, S.T.ELBERT, *
          *   M.S.GORDON, J.H.JENSEN, S.KOSEKI, N.MATSUNAGA,   *
          *          K.A.NGUYEN, S.J.SU, T.L.WINDUS,           *
          *       TOGETHER WITH M.DUPUIS, J.A.MONTGOMERY       *
          *         J.COMPUT.CHEM.  14, 1347-1363(1993)        *
          **************** 64 BIT APPLE VERSION ****************

  SINCE 1993, STUDENTS AND POSTDOCS WORKING AT IOWA STATE UNIVERSITY
  AND ALSO IN THEIR VARIOUS JOBS AFTER LEAVING ISU HAVE MADE IMPORTANT
  CONTRIBUTIONS TO THE CODE:
     IVANA ADAMOVIC, CHRISTINE AIKENS, YURI ALEXEEV, POOJA ARORA,
     ANDREY ASADCHEV, ROB BELL, PRADIPTA BANDYOPADHYAY, JONATHAN BENTZ,
     BRETT BODE, KURT BRORSEN, CALEB CARLIN, GALINA CHABAN, WEI CHEN,
     CHEOL HO CHOI, PAUL DAY, ALBERT DEFUSCO, NUWAN DESILVA, TIM DUDLEY,
     DMITRI FEDOROV, GRAHAM FLETCHER, MARK FREITAG, KURT GLAESEMANN,
     DAN KEMP, GRANT MERRILL, NORIYUKI MINEZAWA, JONATHAN MULLIN,
     TAKESHI NAGATA, SEAN NEDD, HEATHER NETZLOFF, BOSILJKA NJEGIC, RYAN OLSON,
     MIKE PAK, SPENCER PRUITT, LUKE ROSKOP, JIM SHOEMAKER, LYUDMILA SLIPCHENKO,
     TONY SMITH, SAROM SOK LEANG, JIE SONG, TETSUYA TAKETSUGU, SIMON WEBB,
     PENG XU, SOOHAENG YOO, FEDERICO ZAHARIEV

  ADDITIONAL CODE HAS BEEN PROVIDED BY COLLABORATORS IN OTHER GROUPS:
     IOWA STATE UNIVERSITY:
          JOE IVANIC, AARON WEST, LAIMUTIS BYTAUTAS, KLAUS RUEDENBERG
     UNIVERSITY OF TOKYO: KIMIHIKO HIRAO, TAKAHITO NAKAJIMA,
          TAKAO TSUNEDA, MUNEAKI KAMIYA, SUSUMU YANAGISAWA,
          KIYOSHI YAGI, MAHITO CHIBA, SEIKEN TOKURA, NAOAKI KAWAKAMI
     UNIVERSITY OF AARHUS: FRANK JENSEN
     UNIVERSITY OF IOWA: VISVALDAS KAIRYS, HUI LI
     NATIONAL INST. OF STANDARDS AND TECHNOLOGY: WALT STEVENS, DAVID GARMER
     UNIVERSITY OF PISA: BENEDETTA MENNUCCI, JACOPO TOMASI
     UNIVERSITY OF MEMPHIS: HENRY KURTZ, PRAKASHAN KORAMBATH
     UNIVERSITY OF ALBERTA: TOBY ZENG, MARIUSZ KLOBUKOWSKI
     UNIVERSITY OF NEW ENGLAND: MARK SPACKMAN
     MIE UNIVERSITY: HIROAKI UMEDA
     NAT. INST. OF ADVANCED INDUSTRIAL SCIENCE AND TECHNOLOGY: KAZUO KITAURA
     MICHIGAN STATE UNIVERSITY:
          KAROL KOWALSKI, MARTA WLOCH, JEFFREY GOUR, JESSE LUTZ,
          WEI LI, PIOTR PIECUCH
     UNIVERSITY OF SILESIA: MONIKA MUSIAL, STANISLAW KUCHARSKI
     FACULTES UNIVERSITAIRES NOTRE-DAME DE LA PAIX:
          OLIVIER QUINET, BENOIT CHAMPAGNE
     UNIVERSITY OF CALIFORNIA - SANTA BARBARA: BERNARD KIRTMAN
     INSTITUTE FOR MOLECULAR SCIENCE:
          KAZUYA ISHIMURA, MICHIO KATOUDA, AND SHIGERU NAGASE
     UNIVERSITY OF NOTRE DAME: ANNA POMOGAEVA, DAN CHIPMAN
     KYUSHU UNIVERSITY:
          HARUYUKI NAKANO,
          FENG LONG GU, JACEK KORCHOWIEC, MARCIN MAKOWSKI, AND YURIKO AOKI,
          HIROTOSHI MORI AND EISAKU MIYOSHI
     PENNSYLVANIA STATE UNIVERSITY:
          TZVETELIN IORDANOV, CHET SWALINA, JONATHAN SKONE,
          SHARON HAMMES-SCHIFFER
     WASEDA UNIVERSITY:
          MASATO KOBAYASHI, TOMOKO AKAMA, TSUGUKI TOUMA,
          TAKESHI YOSHIKAWA, YASUHIRO IKABATA, JUNJI SEINO,
          YUYA NAKAJIMA, HIROMI NAKAI
     NANJING UNIVERSITY: SHUHUA LI
     UNIVERSITY OF NEBRASKA:
          PEIFENG SU, DEJUN SI, NANDUN THELLAMUREGE, YALI WANG, HUI LI
     UNIVERSITY OF ZURICH: ROBERTO PEVERATI, KIM BALDRIDGE
     N. COPERNICUS UNIVERSITY AND JACKSON STATE UNIVERSITY:
          MARIA BARYSZ
     UNIVERSITY OF COPENHAGEN: Jimmy Kromann, CASPER STEINMANN
     TOKYO INSTITUTE OF TECHNOLOGY: HIROYA NAKATA
     NAGOYA UNIVERSITY: YOSHIO NISHIMOTO, STEPHAN IRLE
     MOSCOW STATE UNIVERSITY: VLADIMIR MIRONOV

 EXECUTION OF GAMESS BEGUN Thu Jan 17 17:53:56 2019

            ECHO OF THE FIRST FEW INPUT CARDS -
 INPUT CARD> $CONTRL MULT=1 SCFTYP=RHF MPLEVL=2 $END                                        
 INPUT CARD> $MP2 NACORE=0 NBCORE=0 $END                                                    
 INPUT CARD> $BASIS GBASIS=N31 NGAUSS=6 NDFUNC=1 NPFUNC=1 $END                              
 INPUT CARD> $GUESS GUESS=HUCKEL $END                                                       
 INPUT CARD> $DATA                                                                          
 INPUT CARD>LiH...HF...6-31G* basis                                                         
 INPUT CARD>Cnv   2                                                                         
 INPUT CARD>                                                                                
 INPUT CARD>Li    3.0    0.0      0.0     0.0                                               
 INPUT CARD>H     1.0    0.0      0.0     5.0                                               
 INPUT CARD> $END                                                                           
    1000000 WORDS OF MEMORY AVAILABLE

     BASIS OPTIONS
     -------------
     GBASIS=N31          IGAUSS=       6      POLAR=POPN31  
     NDFUNC=       1     NFFUNC=       0     DIFFSP=       F
     NPFUNC=       1      DIFFS=       F     BASNAM=        


     RUN TITLE
     ---------
 LiH...HF...6-31G* basis                                                         

 THE POINT GROUP OF THE MOLECULE IS CNV     
 THE ORDER OF THE PRINCIPAL AXIS IS     2

 ATOM      ATOMIC                      COORDINATES (BOHR)
           CHARGE         X                   Y                   Z
 LI          3.0     0.0000000000        0.0000000000        0.0000000000
 H           1.0     0.0000000000        0.0000000000        9.4486299386

          INTERNUCLEAR DISTANCES (ANGS.)
          ------------------------------

                1 LI         2 H     

   1 LI      0.0000000    5.0000000  
   2 H       5.0000000    0.0000000  

  * ... LESS THAN  3.000


     ATOMIC BASIS SET
     ----------------
 THE CONTRACTED PRIMITIVE FUNCTIONS HAVE BEEN UNNORMALIZED
 THE CONTRACTED BASIS FUNCTIONS ARE NOW NORMALIZED TO UNITY

  SHELL TYPE  PRIMITIVE        EXPONENT          CONTRACTION COEFFICIENT(S)

 LI        

      1   S       1           642.4189150    0.002142607810
      1   S       2            96.7985153    0.016208871501
      1   S       3            22.0911212    0.077315572504
      1   S       4             6.2010702    0.245786052013
      1   S       5             1.9351177    0.470189004025
      1   S       6             0.6367358    0.345470845019

      2   L       7             2.3249184   -0.035091745735    0.008941508043
      2   L       8             0.6324304   -0.191232843103    0.141009464046
      2   L       9             0.0790534    1.083987794916    0.945363695309

      3   L      10             0.0359620    1.000000000000    1.000000000000

      4   D      11             0.2000000    1.000000000000

 H         

      5   S      12            18.7311370    0.033494604338
      5   S      13             2.8253944    0.234726953484
      5   S      14             0.6401217    0.813757326146

      6   S      15             0.1612778    1.000000000000

      7   P      16             1.1000000    1.000000000000

 TOTAL NUMBER OF BASIS SET SHELLS             =    7
 NUMBER OF CARTESIAN GAUSSIAN BASIS FUNCTIONS =   20
 NUMBER OF ELECTRONS                          =    4
 CHARGE OF MOLECULE                           =    0
 SPIN MULTIPLICITY                            =    1
 NUMBER OF OCCUPIED ORBITALS (ALPHA)          =    2
 NUMBER OF OCCUPIED ORBITALS (BETA )          =    2
 TOTAL NUMBER OF ATOMS                        =    2
 THE NUCLEAR REPULSION ENERGY IS        0.3175063495

 THIS MOLECULE IS RECOGNIZED AS BEING LINEAR,
 ORBITAL LZ DEGENERACY TOLERANCE ETOLLZ= 1.00E-06

     $CONTRL OPTIONS
     ---------------
 SCFTYP=RHF          RUNTYP=ENERGY       EXETYP=RUN     
 MPLEVL=       2     CITYP =NONE         CCTYP =NONE         VBTYP =NONE    
 DFTTYP=NONE         TDDFT =NONE    
 MULT  =       1     ICHARG=       0     NZVAR =       0     COORD =UNIQUE  
 PP    =NONE         RELWFN=NONE         LOCAL =NONE         NUMGRD=       F
 ISPHER=      -1     NOSYM =       0     MAXIT =      30     UNITS =ANGS    
 PLTORB=       F     MOLPLT=       F     AIMPAC=       F     FRIEND=        
 NPRINT=       7     IREST =       0     GEOM  =INPUT   
 NORMF =       0     NORMP =       0     ITOL  =      20     ICUT  =       9
 INTTYP=BEST         GRDTYP=BEST         QMTTOL= 1.0E-06

     $SYSTEM OPTIONS
     ---------------
  REPLICATED MEMORY=     1000000 WORDS (ON EVERY NODE).
 DISTRIBUTED MEMDDI=           0 MILLION WORDS IN AGGREGATE,
 MEMDDI DISTRIBUTED OVER   1 PROCESSORS IS           0 WORDS/PROCESSOR.
 TOTAL MEMORY REQUESTED ON EACH PROCESSOR=     1000000 WORDS.
 TIMLIM=      525600.00 MINUTES, OR     365.0 DAYS.
 PARALL= F  BALTYP=  DLB     KDIAG=    0  COREFL= F
 MXSEQ2=     300 MXSEQ3=     150  mem10=         0

          ----------------
          PROPERTIES INPUT
          ----------------

     MOMENTS            FIELD           POTENTIAL          DENSITY
 IEMOM =       1   IEFLD =       0   IEPOT =       0   IEDEN =       0
 WHERE =COMASS     WHERE =NUCLEI     WHERE =NUCLEI     WHERE =NUCLEI  
 OUTPUT=BOTH       OUTPUT=BOTH       OUTPUT=BOTH       OUTPUT=BOTH    
 IEMINT=       0   IEFINT=       0                     IEDINT=       0
                                                       MORB  =       0
          EXTRAPOLATION IN EFFECT
          SOSCF IN EFFECT
 ORBITAL PRINTING OPTION: NPREO=     1    20     2     1

     -------------------------------
     INTEGRAL TRANSFORMATION OPTIONS
     -------------------------------
     NWORD  =            0
     CUTOFF = 1.0E-09     MPTRAN =       0
     DIRTRF =       F     AOINTS =DUP     

          ----------------------
          INTEGRAL INPUT OPTIONS
          ----------------------
 NOPK  =       1 NORDER=       0 SCHWRZ=       F

          -----------------------
          MP2 CONTROL INFORMATION
          -----------------------
          NACORE =        0  NBCORE =        0
          LMOMP2 =        F  AOINTS = DUP     
          METHOD =        2  NWORD  =               0
          MP2PRP =        F  OSPT   = NONE    
          CUTOFF = 1.00E-09  CPHFBS = BASISMO 
          CODE   = IMS     

          NUMBER OF CORE -A-  ORBITALS =     0
          NUMBER OF CORE -B-  ORBITALS =     0
          NUMBER OF OCC. -A-  ORBITALS =     2
          NUMBER OF OCC. -B-  ORBITALS =     2
          NUMBER OF MOLECULAR ORBITALS =    20
          NUMBER OF   BASIS  FUNCTIONS =    20


     ------------------------------------------
     THE POINT GROUP IS CNV, NAXIS= 2, ORDER= 4
     ------------------------------------------

     DIMENSIONS OF THE SYMMETRY SUBSPACES ARE
 A1  =   11     A2  =    1     B1  =    4     B2  =    4

 ..... DONE SETTING UP THE RUN .....
 STEP CPU TIME =     0.00 TOTAL CPU TIME =        0.0 (    0.0 MIN)
 TOTAL WALL CLOCK TIME=        0.0 SECONDS, CPU UTILIZATION IS   0.00%

          ********************
          1 ELECTRON INTEGRALS
          ********************
 ...... END OF ONE-ELECTRON INTEGRALS ......
 STEP CPU TIME =     0.00 TOTAL CPU TIME =        0.0 (    0.0 MIN)
 TOTAL WALL CLOCK TIME=        0.0 SECONDS, CPU UTILIZATION IS   0.00%

          -------------
          GUESS OPTIONS
          -------------
          GUESS =HUCKEL            NORB  =       0          NORDER=       0
          MIX   =       F          PRTMO =       F          PUNMO =       F
          TOLZ  = 1.0E-08          TOLE  = 1.0E-05
          SYMDEN=       F          PURIFY=       F

 INITIAL GUESS ORBITALS GENERATED BY HUCKEL   ROUTINE.
 HUCKEL GUESS REQUIRES      4469 WORDS.

 SYMMETRIES FOR INITIAL GUESS ORBITALS FOLLOW.   BOTH SET(S).
     2 ORBITALS ARE OCCUPIED (    1 CORE ORBITALS).
     2=A1       3=A1       4=A1       5=A1       6=A1       7=A1       8=A1  
     9=A1      10=A1      11=A1      12=A2  
 ...... END OF INITIAL ORBITAL SELECTION ......
 STEP CPU TIME =     0.00 TOTAL CPU TIME =        0.0 (    0.0 MIN)
 TOTAL WALL CLOCK TIME=        0.0 SECONDS, CPU UTILIZATION IS   0.00%

                    ----------------------
                    AO INTEGRAL TECHNOLOGY
                    ----------------------
     S,P,L SHELL ROTATED AXIS INTEGRALS, REPROGRAMMED BY
        KAZUYA ISHIMURA (IMS) AND JOSE SIERRA (SYNSTAR).
     S,P,D,L SHELL ROTATED AXIS INTEGRALS PROGRAMMED BY
        KAZUYA ISHIMURA (INSTITUTE FOR MOLECULAR SCIENCE).
     S,P,D,F,G SHELL TO TOTAL QUARTET ANGULAR MOMENTUM SUM 5,
        ERIC PROGRAM BY GRAHAM FLETCHER (ELORET AND NASA ADVANCED
        SUPERCOMPUTING DIVISION, AMES RESEARCH CENTER).
     S,P,D,F,G,L SHELL GENERAL RYS QUADRATURE PROGRAMMED BY
        MICHEL DUPUIS (PACIFIC NORTHWEST NATIONAL LABORATORY).

          --------------------
          2 ELECTRON INTEGRALS
          --------------------

 THE -PK- OPTION IS OFF, THE INTEGRALS ARE NOT IN SUPERMATRIX FORM.
 STORING   15000 INTEGRALS/RECORD ON DISK, USING 12 BYTES/INTEGRAL.
 TWO ELECTRON INTEGRAL EVALUATION REQUIRES   90424 WORDS OF MEMORY.
 II,JST,KST,LST =  1  1  1  1 NREC =         1 INTLOC =    1
 II,JST,KST,LST =  2  1  1  1 NREC =         1 INTLOC =    2
 II,JST,KST,LST =  3  1  1  1 NREC =         1 INTLOC =   34
 II,JST,KST,LST =  4  1  1  1 NREC =         1 INTLOC =  214
 II,JST,KST,LST =  5  1  1  1 NREC =         1 INTLOC = 1189
 II,JST,KST,LST =  6  1  1  1 NREC =         1 INTLOC = 1765
 II,JST,KST,LST =  7  1  1  1 NREC =         1 INTLOC = 2583
 TOTAL NUMBER OF NONZERO TWO-ELECTRON INTEGRALS =                4756
          1 INTEGRAL RECORDS WERE STORED ON DISK FILE  8.
  ...... END OF TWO-ELECTRON INTEGRALS .....
 STEP CPU TIME =     0.02 TOTAL CPU TIME =        0.0 (    0.0 MIN)
 TOTAL WALL CLOCK TIME=        0.0 SECONDS, CPU UTILIZATION IS  66.67%

          --------------------------
                 RHF SCF CALCULATION
          --------------------------

     NUCLEAR ENERGY =         0.3175063495
     MAXIT =   30     NPUNCH=    2
     EXTRAP=T  DAMP=F  SHIFT=F  RSTRCT=F  DIIS=F  DEM=F  SOSCF=T
     DENSITY MATRIX CONV=  1.00E-06
     SOSCF WILL OPTIMIZE      36 ORBITAL ROTATIONS, SOGTOL=   0.250
     MEMORY REQUIRED FOR RHF ITERS=     33224 WORDS.

 ITER EX DEM     TOTAL ENERGY        E CHANGE  DENSITY CHANGE     ORB. GRAD
   1  0  0       -7.4810410051    -7.4810410051   1.026418312   0.000000000
          ---------------START SECOND ORDER SCF---------------
   2  1  0       -7.4531789285     0.0278620766   0.958150570   0.050630192
   3  2  0       -7.5245808565    -0.0714019280   0.993229976   0.070605633
 SOSCF IS SCALING ROTATION ANGLE MATRIX, SQCDF=    1.162945
   4  3  0       -7.6528721320    -0.1282912755   2.735894753   0.117081574
 SOSCF IS SCALING ROTATION ANGLE MATRIX, SQCDF=    0.203657
   5  4  0       -7.6251557142     0.0277164178   2.458287438   0.128193174
   6  5  0       -7.6450030874    -0.0198473732   2.092556413   0.097265860
   7  6  0       -7.6026636106     0.0423394767   2.322706204   0.129726512
   8  7  0       -7.6573878585    -0.0547242479   0.301288335   0.099615431
   9  8  0       -7.6697995100    -0.0124116515   1.002778225   0.104016265
  10  9  0       -7.7635792392    -0.0937797292   0.226718364   0.077939594
  11 10  0       -7.7947869943    -0.0312077551   0.232748895   0.031133084
  12 11  0       -7.8082115828    -0.0134245885   0.410287821   0.011469294
  13 12  0       -7.8187080174    -0.0104964346   0.328265711   0.015126755
  14 13  0       -7.8181738345     0.0005341829   0.335310582   0.021682565
  15 14  0       -7.8223243797    -0.0041505453   0.030883149   0.004701102
  16 15  0       -7.8227294911    -0.0004051114   0.018139261   0.001660501
  17 16  0       -7.8227801721    -0.0000506809   0.002129923   0.000195233
  18 17  0       -7.8227808494    -0.0000006773   0.000173690   0.000034339
  19 18  0       -7.8227808538    -0.0000000044   0.000040693   0.000005774
  20 19  0       -7.8227808541    -0.0000000003   0.000004613   0.000000955
  21 20  0       -7.8227808541    -0.0000000000   0.000000923   0.000000269
  22 21  0       -7.8227808541    -0.0000000000   0.000000043   0.000000041

          -----------------
          DENSITY CONVERGED
          -----------------
     TIME TO FORM FOCK OPERATORS=       0.0 SECONDS (       0.0 SEC/ITER)
     TIME TO SOLVE SCF EQUATIONS=       0.0 SECONDS (       0.0 SEC/ITER)

 FINAL RHF ENERGY IS       -7.8227808541 AFTER  22 ITERATIONS

 LZ VALUE ANALYSIS FOR THE MOS
 ----------------------------------------
 MO     1 (    1) HAS LZ(WEIGHT)= 0.00(100.0%) 
 MO     2 (    2) HAS LZ(WEIGHT)= 0.00(100.0%) 
 MO     3 (    3) HAS LZ(WEIGHT)= 0.00(100.0%) 
 MO     4 (    4) HAS LZ(WEIGHT)=-1.00( 50.0%)  1.00( 50.0%) 
 MO     5 (    4) HAS LZ(WEIGHT)=-1.00( 50.0%)  1.00( 50.0%) 
 MO     6 (    5) HAS LZ(WEIGHT)= 0.00(100.0%) 
 MO     7 (    6) HAS LZ(WEIGHT)= 0.00(100.0%) 
 MO     8 (    7) HAS LZ(WEIGHT)=-1.00( 50.0%)  1.00( 50.0%) 
 MO     9 (    7) HAS LZ(WEIGHT)=-1.00( 50.0%)  1.00( 50.0%) 
 MO    10 (    8) HAS LZ(WEIGHT)= 0.00(100.0%) 
 MO    11 (    9) HAS LZ(WEIGHT)=-2.00( 50.0%)  2.00( 50.0%) 
 MO    12 (    9) HAS LZ(WEIGHT)=-2.00( 50.0%)  2.00( 50.0%) 
 MO    13 (   10) HAS LZ(WEIGHT)=-1.00( 50.0%)  1.00( 50.0%) 
 MO    14 (   10) HAS LZ(WEIGHT)=-1.00( 50.0%)  1.00( 50.0%) 
 MO    15 (   11) HAS LZ(WEIGHT)= 0.00(100.0%) 
 MO    16 (   12) HAS LZ(WEIGHT)= 0.00(100.0%) 
 MO    17 (   13) HAS LZ(WEIGHT)= 0.00(100.0%) 
 MO    18 (   14) HAS LZ(WEIGHT)=-1.00( 50.0%)  1.00( 50.0%) 
 MO    19 (   14) HAS LZ(WEIGHT)=-1.00( 50.0%)  1.00( 50.0%) 
 MO    20 (   15) HAS LZ(WEIGHT)= 0.00(100.0%) 

          ------------
          EIGENVECTORS
          ------------

                      1          2          3          4          5
                   -2.5871    -0.1744    -0.0560     0.0177     0.0177
                     A1         A1         A1         B2         B1  
    1  LI 1  S    0.998769  -0.097692  -0.161277  -0.000000  -0.000000
    2  LI 1  S   -0.012098  -0.077411   0.125831  -0.000000  -0.000000
    3  LI 1  X    0.000000   0.000000  -0.000000  -0.000000   0.243265
    4  LI 1  Y    0.000000   0.000000  -0.000000   0.243265  -0.000000
    5  LI 1  Z   -0.001854  -0.042567  -0.052537  -0.000000  -0.000000
    6  LI 1  S    0.001833   0.507859   0.686680  -0.000000  -0.000000
    7  LI 1  X    0.000000   0.000000  -0.000000  -0.000000   0.794090
    8  LI 1  Y    0.000000   0.000000  -0.000000   0.794090  -0.000000
    9  LI 1  Z    0.001226   0.201521  -0.259365  -0.000000  -0.000000
   10  LI 1 XX    0.008738   0.036173   0.032232  -0.000000  -0.000000
   11  LI 1 YY    0.008738   0.036173   0.032232  -0.000000  -0.000000
   12  LI 1 ZZ    0.008659   0.041312   0.029662  -0.000000  -0.000000
   13  LI 1 XY    0.000000   0.000000  -0.000000  -0.000000  -0.000000
   14  LI 1 XZ    0.000000   0.000000  -0.000000  -0.000000  -0.019065
   15  LI 1 YZ    0.000000   0.000000  -0.000000  -0.019065  -0.000000
   16  H  2  S    0.000044   0.238201  -0.124962  -0.000000  -0.000000
   17  H  2  S   -0.000155   0.629953  -0.338500  -0.000000  -0.000000
   18  H  2  X    0.000000   0.000000  -0.000000  -0.000000   0.000600
   19  H  2  Y    0.000000   0.000000  -0.000000   0.000600  -0.000000
   20  H  2  Z    0.000009  -0.001034  -0.000700  -0.000000  -0.000000

                      6          7          8          9         10
                    0.0372     0.1484     0.1624     0.1624     0.2000
                     A1         A1         B1         B2         A1  
    1  LI 1  S   -0.027032   0.060817  -0.000000  -0.000000   0.056065
    2  LI 1  S    0.384707   2.417899  -0.000000  -0.000000   2.109010
    3  LI 1  X   -0.000000  -0.000000   1.655794  -0.000000   0.000000
    4  LI 1  Y   -0.000000  -0.000000  -0.000000   1.655794   0.000000
    5  LI 1  Z    0.314908  -1.121152  -0.000000  -0.000000   1.224070
    6  LI 1  S   -0.122103  -1.882855  -0.000000  -0.000000  -1.677629
    7  LI 1  X   -0.000000  -0.000000  -1.473838  -0.000000   0.000000
    8  LI 1  Y   -0.000000  -0.000000  -0.000000  -1.473838   0.000000
    9  LI 1  Z    0.668218   0.954693  -0.000000  -0.000000  -1.203918
   10  LI 1 XX   -0.010710  -0.234379  -0.000000  -0.000000  -0.167154
   11  LI 1 YY   -0.010710  -0.234379  -0.000000  -0.000000  -0.167154
   12  LI 1 ZZ   -0.055115  -0.202406  -0.000000  -0.000000  -0.203098
   13  LI 1 XY   -0.000000  -0.000000  -0.000000  -0.000000   0.000000
   14  LI 1 XZ   -0.000000  -0.000000  -0.028409  -0.000000   0.000000
   15  LI 1 YZ   -0.000000  -0.000000  -0.000000  -0.028409   0.000000
   16  H  2  S   -0.089331   0.004743  -0.000000  -0.000000   0.050925
   17  H  2  S   -0.299881  -0.030178  -0.000000  -0.000000   0.233885
   18  H  2  X   -0.000000  -0.000000  -0.000723  -0.000000   0.000000
   19  H  2  Y   -0.000000  -0.000000  -0.000000  -0.000723   0.000000
   20  H  2  Z   -0.002106   0.000266  -0.000000  -0.000000   0.003191

                     11         12         13         14         15
                    0.4950     0.4950     0.4981     0.4981     0.4997
                     A1         A2         B2         B1         A1  
    1  LI 1  S    0.000000   0.000000  -0.000000  -0.000000  -0.000517
    2  LI 1  S    0.000000   0.000000  -0.000000  -0.000000   0.019519
    3  LI 1  X    0.000000   0.000000  -0.000000   0.051709   0.000000
    4  LI 1  Y    0.000000   0.000000   0.051709  -0.000000   0.000000
    5  LI 1  Z    0.000000   0.000000  -0.000000  -0.000000   0.062843
    6  LI 1  S    0.000000   0.000000  -0.000000  -0.000000  -0.007245
    7  LI 1  X    0.000000   0.000000  -0.000000  -0.026748   0.000000
    8  LI 1  Y    0.000000   0.000000  -0.026748  -0.000000   0.000000
    9  LI 1  Z    0.000000   0.000000  -0.000000  -0.000000  -0.030894
   10  LI 1 XX    0.866025   0.000000  -0.000000  -0.000000  -0.502608
   11  LI 1 YY   -0.866025   0.000000  -0.000000  -0.000000  -0.502608
   12  LI 1 ZZ   -0.000000   0.000000  -0.000000  -0.000000   0.995903
   13  LI 1 XY    0.000000   1.000000  -0.000000  -0.000000   0.000000
   14  LI 1 XZ    0.000000   0.000000  -0.000000   0.999415   0.000000
   15  LI 1 YZ    0.000000   0.000000   0.999415  -0.000000   0.000000
   16  H  2  S    0.000000   0.000000  -0.000000  -0.000000  -0.010808
   17  H  2  S    0.000000   0.000000  -0.000000  -0.000000  -0.000733
   18  H  2  X    0.000000   0.000000  -0.000000   0.000113   0.000000
   19  H  2  Y    0.000000   0.000000   0.000113  -0.000000   0.000000
   20  H  2  Z    0.000000   0.000000  -0.000000  -0.000000  -0.000274

                     16         17         18         19         20
                    1.1352     1.1932     2.4672     2.4672     2.4703
                     A1         A1         B2         B1         A1  
    1  LI 1  S    0.090185   0.073263  -0.000000  -0.000000  -0.004840
    2  LI 1  S    7.761332   5.448515  -0.000000  -0.000000  -0.234807
    3  LI 1  X    0.000000   0.000000  -0.000000   0.007682  -0.000000
    4  LI 1  Y    0.000000   0.000000   0.007682  -0.000000  -0.000000
    5  LI 1  Z   -0.046501   0.123711  -0.000000  -0.000000  -0.036061
    6  LI 1  S   -2.353029  -1.799697  -0.000000  -0.000000   0.102670
    7  LI 1  X    0.000000   0.000000  -0.000000  -0.010101  -0.000000
    8  LI 1  Y    0.000000   0.000000  -0.010101  -0.000000  -0.000000
    9  LI 1  Z    0.073739  -0.178469  -0.000000  -0.000000   0.050160
   10  LI 1 XX   -2.604575  -1.765103  -0.000000  -0.000000   0.066203
   11  LI 1 YY   -2.604575  -1.765103  -0.000000  -0.000000   0.066203
   12  LI 1 ZZ   -2.598576  -1.777108  -0.000000  -0.000000   0.066748
   13  LI 1 XY    0.000000   0.000000  -0.000000  -0.000000  -0.000000
   14  LI 1 XZ    0.000000   0.000000  -0.000000  -0.000123  -0.000000
   15  LI 1 YZ    0.000000   0.000000  -0.000123  -0.000000  -0.000000
   16  H  2  S    0.697595  -1.103068  -0.000000  -0.000000   0.008356
   17  H  2  S   -0.528189   0.974976  -0.000000  -0.000000  -0.015802
   18  H  2  X    0.000000   0.000000  -0.000000   1.000013  -0.000000
   19  H  2  Y    0.000000   0.000000   1.000013  -0.000000  -0.000000
   20  H  2  Z    0.005554   0.007161  -0.000000  -0.000000   1.000432
 ...... END OF RHF CALCULATION ......
 STEP CPU TIME =     0.01 TOTAL CPU TIME =        0.0 (    0.0 MIN)
 TOTAL WALL CLOCK TIME=        0.1 SECONDS, CPU UTILIZATION IS  42.86%

     ----------------------------------------------------------------
     PROPERTY VALUES FOR THE RHF   SELF-CONSISTENT FIELD WAVEFUNCTION
     ----------------------------------------------------------------

          -----------------
          ENERGY COMPONENTS
          -----------------

         WAVEFUNCTION NORMALIZATION =       1.0000000000

                ONE ELECTRON ENERGY =     -10.7574763428
                TWO ELECTRON ENERGY =       2.6171891392
           NUCLEAR REPULSION ENERGY =       0.3175063495
                                      ------------------
                       TOTAL ENERGY =      -7.8227808541

 ELECTRON-ELECTRON POTENTIAL ENERGY =       2.6171891392
  NUCLEUS-ELECTRON POTENTIAL ENERGY =     -18.5890380997
   NUCLEUS-NUCLEUS POTENTIAL ENERGY =       0.3175063495
                                      ------------------
             TOTAL POTENTIAL ENERGY =     -15.6543426110
               TOTAL KINETIC ENERGY =       7.8315617569
                 VIRIAL RATIO (V/T) =       1.9988787801

  ...... PI ENERGY ANALYSIS ......

 ENERGY ANALYSIS:
            FOCK ENERGY=     -5.5230980521
          BARE H ENERGY=    -10.7574763428
     ELECTRONIC ENERGY =     -8.1402871974
         KINETIC ENERGY=      7.8315617569
          N-N REPULSION=      0.3175063495
           TOTAL ENERGY=     -7.8227808479
        SIGMA PART(1+2)=     -8.1402871974
               (K,V1,2)=      7.8315617569    -18.5890380997      2.6171891453
           PI PART(1+2)=      0.0000000000
               (K,V1,2)=      0.0000000000      0.0000000000      0.0000000000
  SIGMA SKELETON, ERROR=     -7.8227808479      0.0000000000
             MIXED PART= 0.00000E+00 0.00000E+00 0.00000E+00 0.00000E+00
 ...... END OF PI ENERGY ANALYSIS ......

          ---------------------------------------
          MULLIKEN AND LOWDIN POPULATION ANALYSES
          ---------------------------------------

     ATOMIC MULLIKEN POPULATION IN EACH MOLECULAR ORBITAL

                      1          2

                  2.000000   2.000000

    1             2.000000   0.624635
    2            -0.000000   1.375365

               ----- POPULATIONS IN EACH AO -----
                             MULLIKEN      LOWDIN
              1  LI 1  S      1.99809     1.98031
              2  LI 1  S     -0.07435     0.10778
              3  LI 1  X      0.00000     0.00000
              4  LI 1  Y      0.00000     0.00000
              5  LI 1  Z     -0.01165     0.00506
              6  LI 1  S      0.53032     0.33454
              7  LI 1  X      0.00000     0.00000
              8  LI 1  Y      0.00000     0.00000
              9  LI 1  Z      0.10821     0.08874
             10  LI 1 XX      0.02351     0.03170
             11  LI 1 YY      0.02351     0.03170
             12  LI 1 ZZ      0.02700     0.03423
             13  LI 1 XY      0.00000     0.00000
             14  LI 1 XZ      0.00000     0.00000
             15  LI 1 YZ      0.00000     0.00000
             16  H  2  S      0.31821     0.39944
             17  H  2  S      1.05714     0.98646
             18  H  2  X      0.00000     0.00000
             19  H  2  Y      0.00000     0.00000
             20  H  2  Z      0.00001     0.00004

          ----- MULLIKEN ATOMIC OVERLAP POPULATIONS -----
          (OFF-DIAGONAL ELEMENTS NEED TO BE MULTIPLIED BY 2)

             1           2

    1    2.5515553
    2    0.0730793   1.3022862

          TOTAL MULLIKEN AND LOWDIN ATOMIC POPULATIONS
       ATOM         MULL.POP.    CHARGE          LOW.POP.     CHARGE
    1 LI            2.624635    0.375365         2.614063    0.385937
    2 H             1.375365   -0.375365         1.385937   -0.385937

          -------------------------------
          BOND ORDER AND VALENCE ANALYSIS     BOND ORDER THRESHOLD=0.050
          -------------------------------

                   BOND                       BOND                       BOND
  ATOM PAIR DIST  ORDER      ATOM PAIR DIST  ORDER      ATOM PAIR DIST  ORDER
    1   2  5.000  0.859

                       TOTAL       BONDED        FREE
      ATOM            VALENCE     VALENCE     VALENCE
    1 LI                0.859       0.859       0.000
    2 H                 0.859       0.859       0.000

          ---------------------
          ELECTROSTATIC MOMENTS
          ---------------------

 POINT   1           X           Y           Z (BOHR)    CHARGE
                 0.000000    0.000000    1.186786        0.00 (A.U.)
         DX          DY          DZ         /D/  (DEBYE)
     0.000000    0.000000  -12.464736   12.464736
 ...... END OF PROPERTY EVALUATION ......
 STEP CPU TIME =     0.01 TOTAL CPU TIME =        0.0 (    0.0 MIN)
 TOTAL WALL CLOCK TIME=        0.1 SECONDS, CPU UTILIZATION IS  57.14%

 --------------------------   -----------------------------
 RHF-MP2 ENERGY CALCULATION   PROGRAM WRITTEN BY K.ISHIMURA
 --------------------------   -----------------------------
 NUMBER OF OCCUPIED ORBITALS            =    2
 NUMBER OF CORRELATED OCCUPIED ORBITALS =    2
 NUMBER OF VIRTUAL ORBITALS             =   18
 NUMBER OF BASIS FUNCTIONS              =   20
 NUMBER OF BASIS SHELLS                 =    7
 AO-TRANSFORMED INTEGRAL THRESHOLD      = 1.00E-09
 HALF-TRANSFORMED INTEGRAL THRESHOLD    = 1.66E-11
 TOTAL DISK REQUIRED (ALL PROCESSORS)=              0 MBYTES
                  DISK SPACE PER CORE=              0 MBYTES, USING P=    1
 MEMORY REQUIRED FOR TRANSFORMATION OF 1ST THREE INDICES=       12422
 MEMORY REQUIRED FOR    4TH INDEX TRANSF. AND MP2 ENERGY=        3084
 BEGINNING MP2 INTEGRAL TRANSFORMATION...
 BEGINNING    1ST SHELL LOOP...

 RESULTS OF MOLLER-PLESSET 2ND ORDER CORRECTION ARE
               E(0)=        -7.8227808541
               E(1)=         0.0
               E(2)=        -0.0555749170
             E(MP2)=        -7.8783557711
 SPIN-COMPONENT-SCALED MP2 RESULTS ARE
              E(2S)=        -0.0555652404
              E(2T)=        -0.0000096766
             E(2ST)=        -0.0666815140 = 6/5 * E(2S) + 1/3 * E(2T)
            SCS-MP2=        -7.8894623681
 ..... DONE WITH MP2 ENERGY .....
 STEP CPU TIME =     0.01 TOTAL CPU TIME =        0.0 (    0.0 MIN)
 TOTAL WALL CLOCK TIME=        0.2 SECONDS, CPU UTILIZATION IS  23.81%
               580000  WORDS OF DYNAMIC MEMORY USED
 EXECUTION OF GAMESS TERMINATED NORMALLY Thu Jan 17 17:53:56 2019
 DDI: 263640 bytes (0.3 MB / 0 MWords) used by master data server.

 ----------------------------------------
 CPU timing information for all processes
 ========================================
 0: 0.42 + 0.16 = 0.58
 1: 0.01 + 0.01 = 0.03
 ----------------------------------------
 ddikick.x: exited gracefully.
unset echo
----- accounting info -----
Files used on the master node bach.ad64.riken.go.jp were:
-rw-------  1 maho  staff      261  1 17 17:53 .//LiH.631g/5.0/LiH.631g.MP2.5.0.gamess.F05
-rw-r--r--  1 maho  staff   180016  1 17 17:53 .//LiH.631g/5.0/LiH.631g.MP2.5.0.gamess.F08
-rw-r--r--  1 maho  staff  1537840  1 17 17:53 .//LiH.631g/5.0/LiH.631g.MP2.5.0.gamess.F10
-rw-r--r--  1 maho  staff     7352  1 17 17:53 .//LiH.631g/5.0/LiH.631g.MP2.5.0.gamess.dat
-rw-------  1 maho  staff      261  1 17 17:53 .//LiH.631g/5.0/LiH.631g.MP2.5.0.gamess.inp
-rw-r--r--  1 maho  staff    32305  1 17 17:54 .//LiH.631g/5.0/LiH.631g.MP2.5.0.gamess.log
ls: No match.
ls: No match.
ls: No match.
2019年 1月17日 木曜日 17時54分00秒 JST
0.152u 0.105s 0:03.62 6.9%	0+0k 0+0io 0pf+0w
