----- GAMESS execution script 'rungms' -----
This job is running on host localhost
under operating system Linux at Thu Jan 17 18:27:16 JST 2019
Available scratch disk space (Kbyte units) at beginning of the job is
Filesystem     1K-blocks      Used Available Use% Mounted on
/dev/sda1      895286904 141745116 708040760  17% /
GAMESS temporary binary files will be written to .
GAMESS supplementary output files will be written to .
Copying input file N2.SV/3.2/N2.SV.fullCI.3.2.gamess.inp to your run's scratch directory...
cp N2.SV/3.2/N2.SV.fullCI.3.2.gamess.inp ./N2.SV/3.2/N2.SV.fullCI.3.2.gamess.F05
unset echo
/work/pubchem/pm6/pkg/gamess_intel/ddikick.x /work/pubchem/pm6/pkg/gamess_intel/gamess.00.x N2.SV/3.2/N2.SV.fullCI.3.2.gamess -ddi 12 12 localhost localhost localhost localhost localhost localhost localhost localhost localhost localhost localhost localhost -scr .

 Distributed Data Interface kickoff program.
 Initiating 12 compute processes on 12 nodes to run the following command:
 /work/pubchem/pm6/pkg/gamess_intel/gamess.00.x N2.SV/3.2/N2.SV.fullCI.3.2.gamess 

          ******************************************************
          *         GAMESS VERSION =  5 DEC 2014 (R1)          *
          *             FROM IOWA STATE UNIVERSITY             *
          * M.W.SCHMIDT, K.K.BALDRIDGE, J.A.BOATZ, S.T.ELBERT, *
          *   M.S.GORDON, J.H.JENSEN, S.KOSEKI, N.MATSUNAGA,   *
          *          K.A.NGUYEN, S.J.SU, T.L.WINDUS,           *
          *       TOGETHER WITH M.DUPUIS, J.A.MONTGOMERY       *
          *         J.COMPUT.CHEM.  14, 1347-1363(1993)        *
          **************** 64 BIT INTEL VERSION ****************

  SINCE 1993, STUDENTS AND POSTDOCS WORKING AT IOWA STATE UNIVERSITY
  AND ALSO IN THEIR VARIOUS JOBS AFTER LEAVING ISU HAVE MADE IMPORTANT
  CONTRIBUTIONS TO THE CODE:
     IVANA ADAMOVIC, CHRISTINE AIKENS, YURI ALEXEEV, POOJA ARORA,
     ANDREY ASADCHEV, ROB BELL, PRADIPTA BANDYOPADHYAY, JONATHAN BENTZ,
     BRETT BODE, KURT BRORSEN, CALEB CARLIN, GALINA CHABAN, WEI CHEN,
     CHEOL HO CHOI, PAUL DAY, ALBERT DEFUSCO, NUWAN DESILVA, TIM DUDLEY,
     DMITRI FEDOROV, GRAHAM FLETCHER, MARK FREITAG, KURT GLAESEMANN,
     DAN KEMP, GRANT MERRILL, NORIYUKI MINEZAWA, JONATHAN MULLIN,
     TAKESHI NAGATA, SEAN NEDD, HEATHER NETZLOFF, BOSILJKA NJEGIC, RYAN OLSON,
     MIKE PAK, SPENCER PRUITT, LUKE ROSKOP, JIM SHOEMAKER, LYUDMILA SLIPCHENKO,
     TONY SMITH, SAROM SOK, JIE SONG, TETSUYA TAKETSUGU, SIMON WEBB,
     PENG XU, SOOHAENG YOO, FEDERICO ZAHARIEV

  ADDITIONAL CODE HAS BEEN PROVIDED BY COLLABORATORS IN OTHER GROUPS:
     IOWA STATE UNIVERSITY:
          JOE IVANIC, AARON WEST, LAIMUTIS BYTAUTAS, KLAUS RUEDENBERG
     UNIVERSITY OF TOKYO: KIMIHIKO HIRAO, TAKAHITO NAKAJIMA,
          TAKAO TSUNEDA, MUNEAKI KAMIYA, SUSUMU YANAGISAWA,
          KIYOSHI YAGI, MAHITO CHIBA, SEIKEN TOKURA, NAOAKI KAWAKAMI
     UNIVERSITY OF AARHUS: FRANK JENSEN
     UNIVERSITY OF IOWA: VISVALDAS KAIRYS, HUI LI
     NATIONAL INST. OF STANDARDS AND TECHNOLOGY: WALT STEVENS, DAVID GARMER
     UNIVERSITY OF PISA: BENEDETTA MENNUCCI, JACOPO TOMASI
     UNIVERSITY OF MEMPHIS: HENRY KURTZ, PRAKASHAN KORAMBATH
     UNIVERSITY OF ALBERTA: TOBY ZENG, MARIUSZ KLOBUKOWSKI
     UNIVERSITY OF NEW ENGLAND: MARK SPACKMAN
     MIE UNIVERSITY: HIROAKI UMEDA
     NAT. INST. OF ADVANCED INDUSTRIAL SCIENCE AND TECHNOLOGY: KAZUO KITAURA
     MICHIGAN STATE UNIVERSITY:
          KAROL KOWALSKI, MARTA WLOCH, JEFFREY GOUR, JESSE LUTZ,
          WEI LI, PIOTR PIECUCH
     UNIVERSITY OF SILESIA: MONIKA MUSIAL, STANISLAW KUCHARSKI
     FACULTES UNIVERSITAIRES NOTRE-DAME DE LA PAIX:
          OLIVIER QUINET, BENOIT CHAMPAGNE
     UNIVERSITY OF CALIFORNIA - SANTA BARBARA: BERNARD KIRTMAN
     INSTITUTE FOR MOLECULAR SCIENCE:
          KAZUYA ISHIMURA, MICHIO KATOUDA, AND SHIGERU NAGASE
     UNIVERSITY OF NOTRE DAME: ANNA POMOGAEVA, DAN CHIPMAN
     KYUSHU UNIVERSITY:
          HARUYUKI NAKANO,
          FENG LONG GU, JACEK KORCHOWIEC, MARCIN MAKOWSKI, AND YURIKO AOKI,
          HIROTOSHI MORI AND EISAKU MIYOSHI
     PENNSYLVANIA STATE UNIVERSITY:
          TZVETELIN IORDANOV, CHET SWALINA, JONATHAN SKONE,
          SHARON HAMMES-SCHIFFER
     WASEDA UNIVERSITY:
          MASATO KOBAYASHI, TOMOKO AKAMA, TSUGUKI TOUMA,
          TAKESHI YOSHIKAWA, YASUHIRO IKABATA, HIROMI NAKAI
     NANJING UNIVERSITY: SHUHUA LI
     UNIVERSITY OF NEBRASKA:
          PEIFENG SU, DEJUN SI, NANDUN THELLAMUREGE, YALI WANG, HUI LI
     UNIVERSITY OF ZURICH: ROBERTO PEVERATI, KIM BALDRIDGE
     N. COPERNICUS UNIVERSITY AND JACKSON STATE UNIVERSITY:
          MARIA BARYSZ
     UNIVERSITY OF COPENHAGEN: CASPER STEINMANN
     TOKYO INSTITUTE OF TECHNOLOGY: HIROYA NAKATA
     NAGOYA UNIVERSITY: YOSHIO NISHIMOTO, STEPHAN IRLE


 PARALLEL VERSION RUNNING ON       12 PROCESSORS IN       12 NODES.

 EXECUTION OF GAMESS BEGUN Thu Jan 17 18:27:16 2019

            ECHO OF THE FIRST FEW INPUT CARDS -
 INPUT CARD> $CONTRL SCFTYP=RHF CITYP=ALDET $END                                            
 INPUT CARD> $GUESS GUESS=HUCKEL $END                                                       
 INPUT CARD> $SYSTEM MWORDS=300 $END                                                        
 INPUT CARD> $CIDET SZ=0 GROUP=C2V NCORE=2 NACT=16 NELS=10 NSTGSS=6 $END                    
 INPUT CARD> $DATA                                                                          
 INPUT CARD>N2...HF...Double-zeta basis                                                     
 INPUT CARD>Cnv   2                                                                         
 INPUT CARD>                                                                                
 INPUT CARD>N     7.0    0.0      0.0     0.0                                               
 INPUT CARD>S   7                                                                           
 INPUT CARD>  1   5909.0000000              0.0011900                                       
 INPUT CARD>  2    887.5000000              0.0090990                                       
 INPUT CARD>  3    204.7000000              0.0441450                                       
 INPUT CARD>  4     59.8400000              0.1504640                                       
 INPUT CARD>  5     20.0000000              0.3567410                                       
 INPUT CARD>  6      7.1930000              0.4465330                                       
 INPUT CARD>  7      2.6860000              0.1456030                                       
 INPUT CARD>S   2                                                                           
 INPUT CARD>  1      7.1930000             -0.1604050                                       
 INPUT CARD>  2      0.7000000              1.0582150                                       
 INPUT CARD>S   1                                                                           
 INPUT CARD>  1      0.2133000              1.0000000                                       
 INPUT CARD>P   4                                                                           
 INPUT CARD>  1     26.7900000              0.0182540                                       
 INPUT CARD>  2      5.9560000              0.1164610                                       
 INPUT CARD>  3      1.7070000              0.3901780                                       
 INPUT CARD>  4      0.5314000              0.6371020                                       
 INPUT CARD>P   1                                                                           
 INPUT CARD>  1      0.1654000              1.0000000                                       
 INPUT CARD>                                                                                
 INPUT CARD>N     7.0    0.0      0.0     3.2                                               
 INPUT CARD>S   7                                                                           
 INPUT CARD>  1   5909.0000000              0.0011900                                       
 INPUT CARD>  2    887.5000000              0.0090990                                       
 INPUT CARD>  3    204.7000000              0.0441450                                       
 INPUT CARD>  4     59.8400000              0.1504640                                       
 INPUT CARD>  5     20.0000000              0.3567410                                       
 INPUT CARD>  6      7.1930000              0.4465330                                       
 INPUT CARD>  7      2.6860000              0.1456030                                       
 INPUT CARD>S   2                                                                           
 INPUT CARD>  1      7.1930000             -0.1604050                                       
 INPUT CARD>  2      0.7000000              1.0582150                                       
 INPUT CARD>S   1                                                                           
 INPUT CARD>  1      0.2133000              1.0000000                                       
 INPUT CARD>P   4                                                                           
 INPUT CARD>  1     26.7900000              0.0182540                                       
 INPUT CARD>  2      5.9560000              0.1164610                                       
 INPUT CARD>  3      1.7070000              0.3901780                                       
 INPUT CARD>  4      0.5314000              0.6371020                                       
 INPUT CARD>P   1                                                                           
  300000000 WORDS OF MEMORY AVAILABLE


     RUN TITLE
     ---------
 N2...HF...Double-zeta basis                                                     

 THE POINT GROUP OF THE MOLECULE IS CNV     
 THE ORDER OF THE PRINCIPAL AXIS IS     2

 ATOM      ATOMIC                      COORDINATES (BOHR)
           CHARGE         X                   Y                   Z
 N           7.0     0.0000000000        0.0000000000        0.0000000000
 N           7.0     0.0000000000        0.0000000000        6.0471231607

          INTERNUCLEAR DISTANCES (ANGS.)
          ------------------------------

                1 N          2 N     

   1 N       0.0000000    3.2000000  
   2 N       3.2000000    0.0000000  

  * ... LESS THAN  3.000


     ATOMIC BASIS SET
     ----------------
 THE CONTRACTED PRIMITIVE FUNCTIONS HAVE BEEN UNNORMALIZED
 THE CONTRACTED BASIS FUNCTIONS ARE NOW NORMALIZED TO UNITY

  SHELL TYPE  PRIMITIVE        EXPONENT          CONTRACTION COEFFICIENT(S)

 N         

      1   S       1          5909.0000000    0.001189999548
      1   S       2           887.5000000    0.009098996542
      1   S       3           204.7000000    0.044144983225
      1   S       4            59.8400000    0.150463942825
      1   S       5            20.0000000    0.356740864442
      1   S       6             7.1930000    0.446532830321
      1   S       7             2.6860000    0.145602944672

      2   S       8             7.1930000   -0.160405033446
      2   S       9             0.7000000    1.058215220651

      3   S      10             0.2133000    1.000000000000

      4   P      11            26.7900000    0.018253998243
      4   P      12             5.9560000    0.116460988791
      4   P      13             1.7070000    0.390177962446
      4   P      14             0.5314000    0.637101938680

      5   P      15             0.1654000    1.000000000000

 N         

      6   S      16          5909.0000000    0.001189999548
      6   S      17           887.5000000    0.009098996542
      6   S      18           204.7000000    0.044144983225
      6   S      19            59.8400000    0.150463942825
      6   S      20            20.0000000    0.356740864442
      6   S      21             7.1930000    0.446532830321
      6   S      22             2.6860000    0.145602944672

      7   S      23             7.1930000   -0.160405033446
      7   S      24             0.7000000    1.058215220651

      8   S      25             0.2133000    1.000000000000

      9   P      26            26.7900000    0.018253998243
      9   P      27             5.9560000    0.116460988791
      9   P      28             1.7070000    0.390177962446
      9   P      29             0.5314000    0.637101938680

     10   P      30             0.1654000    1.000000000000

 TOTAL NUMBER OF BASIS SET SHELLS             =   10
 NUMBER OF CARTESIAN GAUSSIAN BASIS FUNCTIONS =   18
 NUMBER OF ELECTRONS                          =   14
 CHARGE OF MOLECULE                           =    0
 SPIN MULTIPLICITY                            =    1
 NUMBER OF OCCUPIED ORBITALS (ALPHA)          =    7
 NUMBER OF OCCUPIED ORBITALS (BETA )          =    7
 TOTAL NUMBER OF ATOMS                        =    2
 THE NUCLEAR REPULSION ENERGY IS        8.1030266290

 THIS MOLECULE IS RECOGNIZED AS BEING LINEAR,
 ORBITAL LZ DEGENERACY TOLERANCE ETOLLZ= 1.00E-06

     $CONTRL OPTIONS
     ---------------
 SCFTYP=RHF          RUNTYP=ENERGY       EXETYP=RUN     
 MPLEVL=       0     CITYP =ALDET        CCTYP =NONE         VBTYP =NONE    
 DFTTYP=NONE         TDDFT =NONE    
 MULT  =       1     ICHARG=       0     NZVAR =       0     COORD =UNIQUE  
 PP    =NONE         RELWFN=NONE         LOCAL =NONE         NUMGRD=       F
 ISPHER=      -1     NOSYM =       0     MAXIT =      30     UNITS =ANGS    
 PLTORB=       F     MOLPLT=       F     AIMPAC=       F     FRIEND=        
 NPRINT=       7     IREST =       0     GEOM  =INPUT   
 NORMF =       0     NORMP =       0     ITOL  =      20     ICUT  =       9
 INTTYP=BEST         GRDTYP=BEST         QMTTOL= 1.0E-06

     $SYSTEM OPTIONS
     ---------------
  REPLICATED MEMORY=   300000000 WORDS (ON EVERY NODE).
 DISTRIBUTED MEMDDI=           0 MILLION WORDS IN AGGREGATE,
 MEMDDI DISTRIBUTED OVER  12 PROCESSORS IS           0 WORDS/PROCESSOR.
 TOTAL MEMORY REQUESTED ON EACH PROCESSOR=   300000000 WORDS.
 TIMLIM=      525600.00 MINUTES, OR     365.0 DAYS.
 PARALL= T  BALTYP=  DLB     KDIAG=    0  COREFL= F
 MXSEQ2=     300 MXSEQ3=     150  mem10=         0

          ----------------
          PROPERTIES INPUT
          ----------------

     MOMENTS            FIELD           POTENTIAL          DENSITY
 IEMOM =       1   IEFLD =       0   IEPOT =       0   IEDEN =       0
 WHERE =COMASS     WHERE =NUCLEI     WHERE =NUCLEI     WHERE =NUCLEI  
 OUTPUT=BOTH       OUTPUT=BOTH       OUTPUT=BOTH       OUTPUT=BOTH    
 IEMINT=       0   IEFINT=       0                     IEDINT=       0
                                                       MORB  =       0
          EXTRAPOLATION IN EFFECT
          SOSCF IN EFFECT
 ORBITAL PRINTING OPTION: NPREO=     1    18     2     1

     -------------------------------
     INTEGRAL TRANSFORMATION OPTIONS
     -------------------------------
     NWORD  =            0
     CUTOFF = 1.0E-09     MPTRAN =       0
     DIRTRF =       F     AOINTS =DUP     

          ----------------------
          INTEGRAL INPUT OPTIONS
          ----------------------
 NOPK  =       1 NORDER=       0 SCHWRZ=       F

     ------------------------------------------
     THE POINT GROUP IS CNV, NAXIS= 2, ORDER= 4
     ------------------------------------------

     DIMENSIONS OF THE SYMMETRY SUBSPACES ARE
 A1  =   10     A2  =    0     B1  =    4     B2  =    4

 ..... DONE SETTING UP THE RUN .....
 CPU     0: STEP CPU TIME=     0.01 TOTAL CPU TIME=        0.0 (    0.0 MIN)
 TOTAL WALL CLOCK TIME=        0.0 SECONDS, CPU UTILIZATION IS  50.00%

          ********************
          1 ELECTRON INTEGRALS
          ********************
 ...... END OF ONE-ELECTRON INTEGRALS ......
 CPU     0: STEP CPU TIME=     0.00 TOTAL CPU TIME=        0.0 (    0.0 MIN)
 TOTAL WALL CLOCK TIME=        0.1 SECONDS, CPU UTILIZATION IS  16.67%

          -------------
          GUESS OPTIONS
          -------------
          GUESS =HUCKEL            NORB  =       0          NORDER=       0
          MIX   =       F          PRTMO =       F          PUNMO =       F
          TOLZ  = 1.0E-08          TOLE  = 1.0E-05
          SYMDEN=       F          PURIFY=       F

 INITIAL GUESS ORBITALS GENERATED BY HUCKEL   ROUTINE.
 HUCKEL GUESS REQUIRES      4352 WORDS.

 SYMMETRIES FOR INITIAL GUESS ORBITALS FOLLOW.   BOTH SET(S).
     7 ORBITALS ARE OCCUPIED (    2 CORE ORBITALS).
     3=A1       4=A1       5=A1       6=B1       7=B2       8=B1       9=B2  
    10=A1      11=A1      12=A1      13=A1      14=A1      15=B1      16=B1  
    17=B2  
 ...... END OF INITIAL ORBITAL SELECTION ......
 CPU     0: STEP CPU TIME=     0.01 TOTAL CPU TIME=        0.0 (    0.0 MIN)
 TOTAL WALL CLOCK TIME=        0.1 SECONDS, CPU UTILIZATION IS  33.33%

                    ----------------------
                    AO INTEGRAL TECHNOLOGY
                    ----------------------
     S,P,L SHELL ROTATED AXIS INTEGRALS, REPROGRAMMED BY
        KAZUYA ISHIMURA (IMS) AND JOSE SIERRA (SYNSTAR).
     S,P,D,L SHELL ROTATED AXIS INTEGRALS PROGRAMMED BY
        KAZUYA ISHIMURA (INSTITUTE FOR MOLECULAR SCIENCE).
     S,P,D,F,G SHELL TO TOTAL QUARTET ANGULAR MOMENTUM SUM 5,
        ERIC PROGRAM BY GRAHAM FLETCHER (ELORET AND NASA ADVANCED
        SUPERCOMPUTING DIVISION, AMES RESEARCH CENTER).
     S,P,D,F,G,L SHELL GENERAL RYS QUADRATURE PROGRAMMED BY
        MICHEL DUPUIS (PACIFIC NORTHWEST NATIONAL LABORATORY).

          --------------------
          2 ELECTRON INTEGRALS
          --------------------

 THE -PK- OPTION IS OFF, THE INTEGRALS ARE NOT IN SUPERMATRIX FORM.
 STORING   15000 INTEGRALS/RECORD ON DISK, USING 12 BYTES/INTEGRAL.
 TWO ELECTRON INTEGRAL EVALUATION REQUIRES   89411 WORDS OF MEMORY.
 II,JST,KST,LST =  1  1  1  1 NREC =         1 INTLOC =    1
 II,JST,KST,LST =  2  1  1  1 NREC =         1 INTLOC =    2
 II,JST,KST,LST =  3  1  1  1 NREC =         1 INTLOC =    2
 II,JST,KST,LST =  4  1  1  1 NREC =         1 INTLOC =   12
 II,JST,KST,LST =  5  1  1  1 NREC =         1 INTLOC =   12
 II,JST,KST,LST =  6  1  1  1 NREC =         1 INTLOC =   99
 II,JST,KST,LST =  7  1  1  1 NREC =         1 INTLOC =   99
 II,JST,KST,LST =  8  1  1  1 NREC =         1 INTLOC =  182
 II,JST,KST,LST =  9  1  1  1 NREC =         1 INTLOC =  220
 II,JST,KST,LST = 10  1  1  1 NREC =         1 INTLOC =  308
 TOTAL NUMBER OF NONZERO TWO-ELECTRON INTEGRALS =                3856
         12 INTEGRAL RECORDS WERE STORED ON DISK FILE  8.
  ...... END OF TWO-ELECTRON INTEGRALS .....
 CPU     0: STEP CPU TIME=     0.02 TOTAL CPU TIME=        0.0 (    0.0 MIN)
 TOTAL WALL CLOCK TIME=        0.1 SECONDS, CPU UTILIZATION IS  44.44%

          --------------------------
                 RHF SCF CALCULATION
          --------------------------

     NUCLEAR ENERGY =         8.1030266290
     MAXIT =   30     NPUNCH=    2
     EXTRAP=T  DAMP=F  SHIFT=F  RSTRCT=F  DIIS=F  DEM=F  SOSCF=T
     DENSITY MATRIX CONV=  1.00E-06
     SOSCF WILL OPTIMIZE      77 ORBITAL ROTATIONS, SOGTOL=   0.250
     MEMORY REQUIRED FOR RHF ITERS=     32828 WORDS.

 ITER EX DEM     TOTAL ENERGY        E CHANGE  DENSITY CHANGE     ORB. GRAD
   1  0  0     -107.7750045467  -107.7750045467   0.266466585   0.000000000
          ---------------START SECOND ORDER SCF---------------
   2  1  0     -107.9673723582    -0.1923678115   0.117997189   0.059427333
   3  2  0     -107.9820792872    -0.0147069290   0.022929682   0.022303514
   4  3  0     -107.9845618658    -0.0024825785   0.003189971   0.001816658
   5  4  0     -107.9845795041    -0.0000176383   0.001047504   0.000388360
   6  5  0     -107.9845804798    -0.0000009757   0.000038825   0.000029655
   7  6  0     -107.9845804877    -0.0000000079   0.000019792   0.000008443
   8  7  0     -107.9845804883    -0.0000000006   0.000001202   0.000000608
   9  8  0     -107.9845804883    -0.0000000000   0.000000067   0.000000053

          -----------------
          DENSITY CONVERGED
          -----------------
     TIME TO FORM FOCK OPERATORS=       0.0 SECONDS (       0.0 SEC/ITER)
     TIME TO SOLVE SCF EQUATIONS=       0.0 SECONDS (       0.0 SEC/ITER)

 FINAL RHF ENERGY IS     -107.9845804883 AFTER   9 ITERATIONS

 LZ VALUE ANALYSIS FOR THE MOS
 ----------------------------------------
 MO     1 (    1) HAS LZ(WEIGHT)= 0.00(100.0%) 
 MO     2 (    2) HAS LZ(WEIGHT)= 0.00(100.0%) 
 MO     3 (    3) HAS LZ(WEIGHT)= 0.00(100.0%) 
 MO     4 (    4) HAS LZ(WEIGHT)= 0.00(100.0%) 
 MO     5 (    5) HAS LZ(WEIGHT)= 0.00(100.0%) 
 MO     6 (    6) HAS LZ(WEIGHT)=-1.00( 50.0%)  1.00( 50.0%) 
 MO     7 (    6) HAS LZ(WEIGHT)=-1.00( 50.0%)  1.00( 50.0%) 
 MO     8 (    7) HAS LZ(WEIGHT)=-1.00( 50.0%)  1.00( 50.0%) 
 MO     9 (    7) HAS LZ(WEIGHT)=-1.00( 50.0%)  1.00( 50.0%) 
 MO    10 (    8) HAS LZ(WEIGHT)= 0.00(100.0%) 
 MO    11 (    9) HAS LZ(WEIGHT)= 0.00(100.0%) 
 MO    12 (   10) HAS LZ(WEIGHT)=-1.00( 50.0%)  1.00( 50.0%) 
 MO    13 (   10) HAS LZ(WEIGHT)=-1.00( 50.0%)  1.00( 50.0%) 
 MO    14 (   11) HAS LZ(WEIGHT)=-1.00( 50.0%)  1.00( 50.0%) 
 MO    15 (   11) HAS LZ(WEIGHT)=-1.00( 50.0%)  1.00( 50.0%) 
 MO    16 (   12) HAS LZ(WEIGHT)= 0.00(100.0%) 
 MO    17 (   13) HAS LZ(WEIGHT)= 0.00(100.0%) 
 MO    18 (   14) HAS LZ(WEIGHT)= 0.00(100.0%) 

          ------------
          EIGENVECTORS
          ------------

                      1          2          3          4          5
                  -15.8367   -15.8366    -1.0427    -1.0253    -0.3627
                     A1         A1         A1         A1         A1  
    1  N  1  S    0.706985   0.706993  -0.172728   0.174158   0.007551
    2  N  1  S   -0.000185  -0.000190   0.408036  -0.417393  -0.034522
    3  N  1  S    0.000938   0.000904   0.357647  -0.352633   0.004222
    4  N  1  X    0.000000   0.000000   0.000000   0.000000   0.000000
    5  N  1  Y    0.000000   0.000000   0.000000   0.000000   0.000000
    6  N  1  Z    0.000217   0.000134   0.003908   0.016916   0.483348
    7  N  1  X    0.000000   0.000000   0.000000   0.000000   0.000000
    8  N  1  Y    0.000000   0.000000   0.000000   0.000000   0.000000
    9  N  1  Z   -0.000073  -0.000057   0.006439   0.009219   0.291639
   10  N  2  S    0.706985  -0.706993  -0.172728  -0.174158   0.007551
   11  N  2  S   -0.000185   0.000190   0.408036   0.417393  -0.034522
   12  N  2  S    0.000938  -0.000904   0.357647   0.352633   0.004222
   13  N  2  X    0.000000   0.000000   0.000000   0.000000   0.000000
   14  N  2  Y    0.000000   0.000000   0.000000   0.000000   0.000000
   15  N  2  Z   -0.000217   0.000134  -0.003908   0.016916  -0.483348
   16  N  2  X    0.000000   0.000000   0.000000   0.000000   0.000000
   17  N  2  Y    0.000000   0.000000   0.000000   0.000000   0.000000
   18  N  2  Z    0.000073  -0.000057  -0.006439   0.009219  -0.291639

                      6          7          8          9         10
                   -0.3432    -0.3432    -0.1748    -0.1748    -0.1444
                     B1         B2         B1         B2         A1  
    1  N  1  S    0.000000   0.000000   0.000000   0.000000  -0.010361
    2  N  1  S    0.000000   0.000000   0.000000   0.000000   0.033661
    3  N  1  S    0.000000   0.000000   0.000000   0.000000   0.011370
    4  N  1  X    0.503758   0.000000  -0.512366   0.000000   0.000000
    5  N  1  Y    0.000000   0.503758   0.000000  -0.512366   0.000000
    6  N  1  Z    0.000000   0.000000   0.000000   0.000000   0.524097
    7  N  1  X    0.292257   0.000000  -0.291947   0.000000   0.000000
    8  N  1  Y    0.000000   0.292257   0.000000  -0.291947   0.000000
    9  N  1  Z    0.000000   0.000000   0.000000   0.000000   0.303367
   10  N  2  S    0.000000   0.000000   0.000000   0.000000   0.010361
   11  N  2  S    0.000000   0.000000   0.000000   0.000000  -0.033661
   12  N  2  S    0.000000   0.000000   0.000000   0.000000  -0.011370
   13  N  2  X    0.503758   0.000000   0.512366   0.000000   0.000000
   14  N  2  Y    0.000000   0.503758   0.000000   0.512366   0.000000
   15  N  2  Z    0.000000   0.000000   0.000000   0.000000   0.524097
   16  N  2  X    0.292257   0.000000   0.291947   0.000000   0.000000
   17  N  2  Y    0.000000   0.292257   0.000000   0.291947   0.000000
   18  N  2  Z    0.000000   0.000000   0.000000   0.000000   0.303367

                     11         12         13         14         15
                    0.5880     0.6099     0.6099     0.6716     0.6716
                     A1         B1         B2         B1         B2  
    1  N  1  S    0.023479   0.000000   0.000000   0.000000   0.000000
    2  N  1  S   -0.204938   0.000000   0.000000   0.000000   0.000000
    3  N  1  S    0.160142   0.000000   0.000000   0.000000   0.000000
    4  N  1  X    0.000000  -0.656561   0.000000   0.662582   0.000000
    5  N  1  Y    0.000000   0.000000  -0.656561   0.000000   0.662582
    6  N  1  Z   -0.649479   0.000000   0.000000   0.000000   0.000000
    7  N  1  X    0.000000   0.753462   0.000000  -0.807539   0.000000
    8  N  1  Y    0.000000   0.000000   0.753462   0.000000  -0.807539
    9  N  1  Z    0.652720   0.000000   0.000000   0.000000   0.000000
   10  N  2  S    0.023479   0.000000   0.000000   0.000000   0.000000
   11  N  2  S   -0.204938   0.000000   0.000000   0.000000   0.000000
   12  N  2  S    0.160142   0.000000   0.000000   0.000000   0.000000
   13  N  2  X    0.000000  -0.656561   0.000000  -0.662582   0.000000
   14  N  2  Y    0.000000   0.000000  -0.656561   0.000000  -0.662582
   15  N  2  Z    0.649479   0.000000   0.000000   0.000000   0.000000
   16  N  2  X    0.000000   0.753462   0.000000   0.807539   0.000000
   17  N  2  Y    0.000000   0.000000   0.753462   0.000000   0.807539
   18  N  2  Z   -0.652720   0.000000   0.000000   0.000000   0.000000

                     16         17         18
                    0.7167     0.8752     1.0289
                     A1         A1         A1  
    1  N  1  S   -0.040820  -0.088819   0.079047
    2  N  1  S    0.423191   1.079739  -1.049314
    3  N  1  S   -0.377536  -1.074109   1.088828
    4  N  1  X    0.000000   0.000000   0.000000
    5  N  1  Y    0.000000   0.000000   0.000000
    6  N  1  Z   -0.613039  -0.139144  -0.294617
    7  N  1  X    0.000000   0.000000   0.000000
    8  N  1  Y    0.000000   0.000000   0.000000
    9  N  1  Z    0.827488   0.193059   0.469890
   10  N  2  S    0.040820  -0.088819  -0.079047
   11  N  2  S   -0.423191   1.079739   1.049314
   12  N  2  S    0.377536  -1.074109  -1.088828
   13  N  2  X    0.000000   0.000000   0.000000
   14  N  2  Y    0.000000   0.000000   0.000000
   15  N  2  Z   -0.613039   0.139144  -0.294617
   16  N  2  X    0.000000   0.000000   0.000000
   17  N  2  Y    0.000000   0.000000   0.000000
   18  N  2  Z    0.827488  -0.193059   0.469890
 ...... END OF RHF CALCULATION ......
 CPU     0: STEP CPU TIME=     0.00 TOTAL CPU TIME=        0.0 (    0.0 MIN)
 TOTAL WALL CLOCK TIME=        0.1 SECONDS, CPU UTILIZATION IS  44.44%

     ----------------------------------------------------------------
     PROPERTY VALUES FOR THE RHF   SELF-CONSISTENT FIELD WAVEFUNCTION
     ----------------------------------------------------------------

          -----------------
          ENERGY COMPONENTS
          -----------------

         WAVEFUNCTION NORMALIZATION =       1.0000000000

                ONE ELECTRON ENERGY =    -162.5944198442
                TWO ELECTRON ENERGY =      46.5068127269
           NUCLEAR REPULSION ENERGY =       8.1030266290
                                      ------------------
                       TOTAL ENERGY =    -107.9845804883

 ELECTRON-ELECTRON POTENTIAL ENERGY =      46.5068127269
  NUCLEUS-ELECTRON POTENTIAL ENERGY =    -269.9573531842
   NUCLEUS-NUCLEUS POTENTIAL ENERGY =       8.1030266290
                                      ------------------
             TOTAL POTENTIAL ENERGY =    -215.3475138282
               TOTAL KINETIC ENERGY =     107.3629333399
                 VIRIAL RATIO (V/T) =       2.0057901468

  ...... PI ENERGY ANALYSIS ......

 ENERGY ANALYSIS:
            FOCK ENERGY=    -69.5807939717
          BARE H ENERGY=   -162.5944198442
     ELECTRONIC ENERGY =   -116.0876069079
         KINETIC ENERGY=    107.3629333399
          N-N REPULSION=      8.1030266290
           TOTAL ENERGY=   -107.9845802790
        SIGMA PART(1+2)=   -103.9916450533
               (K,V1,2)=    100.9525324181   -240.7276739775     35.7834965060
           PI PART(1+2)=    -12.0959618546
               (K,V1,2)=      6.4104009218    -29.2296792067     10.7233164302
  SIGMA SKELETON, ERROR=    -95.8886184243      0.0000000000
             MIXED PART= 0.00000E+00 0.00000E+00 0.00000E+00 0.00000E+00
 ...... END OF PI ENERGY ANALYSIS ......

          ---------------------------------------
          MULLIKEN AND LOWDIN POPULATION ANALYSES
          ---------------------------------------

               ----- POPULATIONS IN EACH AO -----
                             MULLIKEN      LOWDIN
              1  N  1  S      2.00013     1.99715
              2  N  1  S      1.07262     1.03961
              3  N  1  S      0.92633     0.96096
              4  N  1  X      0.66421     0.63712
              5  N  1  Y      0.66421     0.63712
              6  N  1  Z      0.62797     0.59549
              7  N  1  X      0.33579     0.36288
              8  N  1  Y      0.33579     0.36288
              9  N  1  Z      0.37295     0.40680
             10  N  2  S      2.00013     1.99715
             11  N  2  S      1.07262     1.03961
             12  N  2  S      0.92633     0.96096
             13  N  2  X      0.66421     0.63712
             14  N  2  Y      0.66421     0.63712
             15  N  2  Z      0.62797     0.59549
             16  N  2  X      0.33579     0.36288
             17  N  2  Y      0.33579     0.36288
             18  N  2  Z      0.37295     0.40680

          ----- MULLIKEN ATOMIC OVERLAP POPULATIONS -----
          (OFF-DIAGONAL ELEMENTS NEED TO BE MULTIPLIED BY 2)

             1           2

    1    6.9116594
    2    0.0883406   6.9116594

          TOTAL MULLIKEN AND LOWDIN ATOMIC POPULATIONS
       ATOM         MULL.POP.    CHARGE          LOW.POP.     CHARGE
    1 N             7.000000   -0.000000         7.000000   -0.000000
    2 N             7.000000    0.000000         7.000000    0.000000

          ---------------------
          ELECTROSTATIC MOMENTS
          ---------------------

 POINT   1           X           Y           Z (BOHR)    CHARGE
                 0.000000    0.000000    3.023562        0.00 (A.U.)
         DX          DY          DZ         /D/  (DEBYE)
     0.000000    0.000000    0.000000    0.000000
 ...... END OF PROPERTY EVALUATION ......
 CPU     0: STEP CPU TIME=     0.01 TOTAL CPU TIME=        0.0 (    0.0 MIN)
 TOTAL WALL CLOCK TIME=        0.1 SECONDS, CPU UTILIZATION IS  38.46%

 DETERMINANT CI OPTIONS   NRNFG   NPFLG
 INTEGRAL TRANSFORMATION    1       0
 DIAGONALIZE HAMILTONIAN    1       0
 FORM 1E- DENSITY MATRIX    1       0
 FORM 2E- DENSITY MATRIX    0       0

     --------------------------------------------------
          AMES LABORATORY DETERMINANTAL FULL CI
     PROGRAM WRITTEN BY JOE IVANIC AND KLAUS RUEDENBERG
     --------------------------------------------------

 THE POINT GROUP                  =   C2V     
 THE STATE SYMMETRY               =   A1      
 NUMBER OF CORE ORBITALS          =    2
 NUMBER OF ACTIVE ORBITALS        =   16
 NUMBER OF ALPHA ELECTRONS        =    7 (   5 ACTIVE)
 NUMBER OF BETA ELECTRONS         =    7 (   5 ACTIVE)
 NUMBER OF OCCUPIED ORBITALS      =   18
 NUMBER OF CI STATES REQUESTED    =    1
 NUMBER OF CI STARTING VECTORS    =    6
 MAX. NO. OF CI EXPANSION VECTORS =   12
 SIZE OF INITIAL CI GUESS MATRIX  =  300
 MAX. NO. OF CI ITERS/STATE       =  100
 CI DIAGONALIZATION CRITERION     = 1.00E-06
 CI PROPERTIES WILL BE FOUND FOR ROOT NUMBER   1
 1E- DENSITY MATRIX OPTIONS ARE 1

 CORRELATION ENERGY ANALYSIS      =    F

 SYMMETRIES FOR THE   2 CORE,  16 ACTIVE ARE

     CORE= A1    A1  

   ACTIVE= A1    A1    A1    B1    B2    B1    B2    A1    A1    B1  
           B2    B1    B2    A1    A1    A1  

     --------------------------------------------
     PARTIAL TWO ELECTRON INTEGRAL TRANSFORMATION
     --------------------------------------------

 NUMBER OF CORE MOLECULAR ORBITALS     =    2
 NUMBER OF OCCUPIED MOLECULAR ORBITALS =   18
 TOTAL NUMBER OF MOLECULAR ORBITALS    =   18
 TOTAL NUMBER OF ATOMIC ORBITALS       =   18
 THRESHOLD FOR KEEPING TRANSFORMED 2E- INTEGRALS = 1.000E-09

 -------------------------------     ------------------------------
 DISTRIBUTED DATA TRANSFORMATION     PROGRAM WRITTEN BY G. FLETCHER
 -------------------------------     ------------------------------

 THE DISTRIBUTED MEMORY REQUIRED FOR THIS STEP IS MEMDDI=         1 MWORDS
 CREATING DISTRIBUTED STORAGE FOR [OCC OCC|OCC OCC] INTEGRALS
 DDI: Creating Array [0] - 171 x 171 = 29241 words.
 CREATING WORKSPACE OF SIZE VVOO
 DDI: Creating Array [1] - 171 x 171 = 29241 words.
 FOR   12 PROCESSORS, THE REPLICATED MEMORY NEEDED IS       58507 WORDS.

      DIRECT 4-INDEX TRANSFORMATION 
      SCHWARZ INEQUALITY TEST SKIPPED          0 INTEGRAL BLOCKS
 ----- FROZEN CORE ENERGY =       -93.4330696590
 ... END OF INTEGRAL TRANSFORMATION ...
 CPU     0: STEP CPU TIME=     0.00 TOTAL CPU TIME=        0.0 (    0.0 MIN)
 TOTAL WALL CLOCK TIME=        0.2 SECONDS, CPU UTILIZATION IS  29.41%

     --------------------------------------------------
          AMES LABORATORY DETERMINANTAL FULL CI
     PROGRAM WRITTEN BY JOE IVANIC AND KLAUS RUEDENBERG
     --------------------------------------------------

 THE NUMBER OF DETERMINANTS HAVING SPACE SYMMETRY A1 
 IN POINT GROUP C2V  WITH SZ=  0.0 IS        4777056
 THE DETERMINANT FULL CI REQUIRES       119865995 WORDS
 INITIAL CI VECTOR GUESS TIME  :          1.2
 INITIAL FULL CI ITERATION TIME:          5.5

 ITERATION      ENERGY           GRADIENT
     0     -108.7439749500     0.45490665
     1     -108.8428841030     0.18311424
     2     -108.8548656377     0.06894599
     3     -108.8563664087     0.03133815
     4     -108.8567041172     0.01571049
     5     -108.8567779346     0.00620167
     6     -108.8567880080     0.00269087
     7     -108.8567891875     0.00166740
     8     -108.8567899714     0.00120916
     9     -108.8567905520     0.00095070
    10     -108.8567907881     0.00065056
    11     -108.8567908823     0.00047111
    12     -108.8567909478     0.00032107
    13     -108.8567909778     0.00027531
    14     -108.8567910160     0.00037080
    15     -108.8567910685     0.00039703
    16     -108.8567911490     0.00045815
    17     -108.8567912995     0.00081838
    18     -108.8567916131     0.00136118
    19     -108.8567921578     0.00153227
    20     -108.8567940525     0.00294023
    21     -108.8569205716     0.03192774
    22     -108.8571961012     0.02407545
    23     -108.8573222471     0.01329884
    24     -108.8573641584     0.00768438
    25     -108.8573787769     0.00543189
    26     -108.8573881370     0.00393836
    27     -108.8573916464     0.00251939
    28     -108.8573929491     0.00127045
    29     -108.8573933487     0.00070031
    30     -108.8573934476     0.00055536
    31     -108.8573934945     0.00033128
    32     -108.8573935322     0.00022651
    33     -108.8573935488     0.00016591
    34     -108.8573935552     0.00010406
    35     -108.8573935580     0.00006441
    36     -108.8573935590     0.00004828
    37     -108.8573935595     0.00002979
    38     -108.8573935598     0.00002162
    39     -108.8573935599     0.00001590
    40     -108.8573935600     0.00000984
    41     -108.8573935600     0.00000670
    42     -108.8573935600     0.00000584
    43     -108.8573935600     0.00000310
    44     -108.8573935600     0.00000202
    45     -108.8573935600     0.00000152
    46     -108.8573935600     0.00000101
    47     -108.8573935600     0.00000067

 CONVERGED STATE    1 ENERGY=     -108.8573935600 IN   47 ITERS

 ALL STATES CONVERGED.

 CI EIGENVECTORS WILL BE LABELED IN GROUP=C2V     
 PRINTING CI COEFFICIENTS LARGER THAN  0.050000

 STATE   1  ENERGY=      -108.8573935600  S=  0.00  SZ=  0.00  SPACE SYM=A1  

      ALPHA       |      BETA        | COEFFICIENT
------------------|------------------|------------
 1111100000000000 | 1111100000000000 |   0.2674001
 1110110000000000 | 1110110000000000 |  -0.2590236
 1111001000000000 | 1111001000000000 |  -0.2590236
 1110011000000000 | 1110011000000000 |   0.2510897
 1101100100000000 | 1101100100000000 |  -0.2282958
 1100110100000000 | 1100110100000000 |   0.2220395
 1101001100000000 | 1101001100000000 |   0.2220395
 1100011100000000 | 1100011100000000 |  -0.2161289
 1111010000000000 | 1110101000000000 |  -0.1725864
 1110101000000000 | 1111010000000000 |  -0.1725864
 1111000100000000 | 1101101000000000 |  -0.1605065
 1101110000000000 | 1110100100000000 |  -0.1605065
 1101101000000000 | 1111000100000000 |  -0.1605065
 1110100100000000 | 1101110000000000 |  -0.1605065
 1110010100000000 | 1100111000000000 |  -0.1558313
 1100111000000000 | 1110010100000000 |  -0.1558313
 1101011000000000 | 1110001100000000 |  -0.1558313
 1110001100000000 | 1101011000000000 |  -0.1558313
 1101010100000000 | 1100101100000000 |   0.1479403
 1100101100000000 | 1101010100000000 |   0.1479403
 1110110000000000 | 1111001000000000 |  -0.0864134
 1111001000000000 | 1110110000000000 |  -0.0864134
 1111100000000000 | 1110011000000000 |  -0.0861729
 1110011000000000 | 1111100000000000 |  -0.0861729
 1110110000000000 | 1101100100000000 |  -0.0808448
 1101100100000000 | 1110110000000000 |  -0.0808448
 1101100100000000 | 1111001000000000 |  -0.0808448
 1111001000000000 | 1101100100000000 |  -0.0808448
 1111100000000000 | 1100110100000000 |   0.0796617
 1100110100000000 | 1111100000000000 |   0.0796617
 1101001100000000 | 1111100000000000 |   0.0796617
 1111100000000000 | 1101001100000000 |   0.0796617
 1110011000000000 | 1101001100000000 |  -0.0784986
 1101001100000000 | 1110011000000000 |  -0.0784986
 1100110100000000 | 1110011000000000 |  -0.0784986
 1110011000000000 | 1100110100000000 |  -0.0784986
 1111001000000000 | 1100011100000000 |   0.0773328
 1100011100000000 | 1111001000000000 |   0.0773328
 1100011100000000 | 1110110000000000 |   0.0773328
 1110110000000000 | 1100011100000000 |   0.0773328
 1100110100000000 | 1101001100000000 |   0.0740801
 1101001100000000 | 1100110100000000 |   0.0740801
 1101100100000000 | 1100011100000000 |   0.0738601
 1100011100000000 | 1101100100000000 |   0.0738601
 ..... DONE WITH DETERMINANT CI COMPUTATION .....
 CPU     0: STEP CPU TIME=   124.55 TOTAL CPU TIME=      124.6 (    2.1 MIN)
 TOTAL WALL CLOCK TIME=      161.0 SECONDS, CPU UTILIZATION IS  77.39%

     ---------------------------
     ONE PARTICLE DENSITY MATRIX
     ---------------------------

 DENSITY MATRIX WILL BE SAVED FOR   1-TH STATE WITH S= 0.00

 CI EIGENSTATE   1 TOTAL ENERGY =     -108.8573935600

          NATURAL ORBITALS IN ATOMIC ORBITAL BASIS
          ----------------------------------------

                      1          2          3          4          5
                    2.0000     2.0000     1.9854     1.9839     1.1014
                     A1         A1         A1         A1         A1  
    1  N  1  S    0.706985  -0.706993  -0.170253  -0.171722   0.002627
    2  N  1  S   -0.000185   0.000190   0.378433   0.385699  -0.006559
    3  N  1  S    0.000938  -0.000904   0.386889   0.385130  -0.008444
    4  N  1  X    0.000000   0.000000   0.000000   0.000000   0.000000
    5  N  1  Y    0.000000   0.000000   0.000000   0.000000   0.000000
    6  N  1  Z    0.000217  -0.000134  -0.002704   0.001904   0.545392
    7  N  1  X    0.000000   0.000000   0.000000   0.000000   0.000000
    8  N  1  Y    0.000000   0.000000   0.000000   0.000000   0.000000
    9  N  1  Z   -0.000073   0.000057   0.001269  -0.003488   0.225575
   10  N  2  S    0.706985   0.706993  -0.170253   0.171722   0.002627
   11  N  2  S   -0.000185  -0.000190   0.378433  -0.385699  -0.006559
   12  N  2  S    0.000938   0.000904   0.386889  -0.385130  -0.008444
   13  N  2  X    0.000000   0.000000   0.000000   0.000000   0.000000
   14  N  2  Y    0.000000   0.000000   0.000000   0.000000   0.000000
   15  N  2  Z   -0.000217  -0.000134   0.002704   0.001904  -0.545392
   16  N  2  X    0.000000   0.000000   0.000000   0.000000   0.000000
   17  N  2  Y    0.000000   0.000000   0.000000   0.000000   0.000000
   18  N  2  Z    0.000073   0.000057  -0.001269  -0.003488  -0.225575

                      6          7          8          9         10
                    1.0159     1.0159     0.9751     0.9751     0.8900
                     B1         B2         B1         B2         A1  
    1  N  1  S    0.000000   0.000000   0.000000   0.000000  -0.003417
    2  N  1  S    0.000000   0.000000   0.000000   0.000000   0.007832
    3  N  1  S    0.000000   0.000000   0.000000   0.000000   0.009667
    4  N  1  X    0.556653   0.000000  -0.563515   0.000000   0.000000
    5  N  1  Y    0.000000   0.556653   0.000000  -0.563515   0.000000
    6  N  1  Z    0.000000   0.000000   0.000000   0.000000   0.576494
    7  N  1  X    0.228535   0.000000  -0.226697   0.000000   0.000000
    8  N  1  Y    0.000000   0.228535   0.000000  -0.226697   0.000000
    9  N  1  Z    0.000000   0.000000   0.000000   0.000000   0.228450
   10  N  2  S    0.000000   0.000000   0.000000   0.000000   0.003417
   11  N  2  S    0.000000   0.000000   0.000000   0.000000  -0.007832
   12  N  2  S    0.000000   0.000000   0.000000   0.000000  -0.009667
   13  N  2  X    0.556653   0.000000   0.563515   0.000000   0.000000
   14  N  2  Y    0.000000   0.556653   0.000000   0.563515   0.000000
   15  N  2  Z    0.000000   0.000000   0.000000   0.000000   0.576494
   16  N  2  X    0.228535   0.000000   0.226697   0.000000   0.000000
   17  N  2  Y    0.000000   0.228535   0.000000   0.226697   0.000000
   18  N  2  Z    0.000000   0.000000   0.000000   0.000000   0.228450

                     11         12         13         14         15
                    0.0119     0.0103     0.0068     0.0062     0.0062
                     A1         A1         A1         B1         B2  
    1  N  1  S   -0.095010  -0.092585  -0.017673   0.000000   0.000000
    2  N  1  S    1.074203   1.098332   0.279919   0.000000   0.000000
    3  N  1  S   -1.028783  -1.077740  -0.314860   0.000000   0.000000
    4  N  1  X    0.000000   0.000000   0.000000  -0.612357   0.000000
    5  N  1  Y    0.000000   0.000000   0.000000   0.000000  -0.612357
    6  N  1  Z    0.130692  -0.129630  -0.600237   0.000000   0.000000
    7  N  1  X    0.000000   0.000000   0.000000   0.775172   0.000000
    8  N  1  Y    0.000000   0.000000   0.000000   0.000000   0.775172
    9  N  1  Z   -0.117696   0.152276   0.695466   0.000000   0.000000
   10  N  2  S   -0.095010   0.092585  -0.017673   0.000000   0.000000
   11  N  2  S    1.074203  -1.098332   0.279919   0.000000   0.000000
   12  N  2  S   -1.028783   1.077740  -0.314860   0.000000   0.000000
   13  N  2  X    0.000000   0.000000   0.000000  -0.612357   0.000000
   14  N  2  Y    0.000000   0.000000   0.000000   0.000000  -0.612357
   15  N  2  Z   -0.130692  -0.129630   0.600237   0.000000   0.000000
   16  N  2  X    0.000000   0.000000   0.000000   0.775172   0.000000
   17  N  2  Y    0.000000   0.000000   0.000000   0.000000   0.775172
   18  N  2  Z    0.117696   0.152276  -0.695466   0.000000   0.000000

                     16         17         18
                    0.0056     0.0056     0.0045
                     B2         B1         A1  
    1  N  1  S    0.000000   0.000000   0.016773
    2  N  1  S    0.000000   0.000000  -0.316769
    3  N  1  S    0.000000   0.000000   0.377646
    4  N  1  X    0.000000   0.619666   0.000000
    5  N  1  Y    0.619666   0.000000   0.000000
    6  N  1  Z    0.000000   0.000000  -0.623239
    7  N  1  X    0.000000  -0.828227   0.000000
    8  N  1  Y   -0.828227   0.000000   0.000000
    9  N  1  Z    0.000000   0.000000   0.960343
   10  N  2  S    0.000000   0.000000  -0.016773
   11  N  2  S    0.000000   0.000000   0.316769
   12  N  2  S    0.000000   0.000000  -0.377646
   13  N  2  X    0.000000  -0.619666   0.000000
   14  N  2  Y   -0.619666   0.000000   0.000000
   15  N  2  Z    0.000000   0.000000  -0.623239
   16  N  2  X    0.000000   0.828227   0.000000
   17  N  2  Y    0.828227   0.000000   0.000000
   18  N  2  Z    0.000000   0.000000   0.960343
 ..... DONE WITH ONE PARTICLE DENSITY MATRIX .....
 CPU     0: STEP CPU TIME=     0.98 TOTAL CPU TIME=      125.6 (    2.1 MIN)
 TOTAL WALL CLOCK TIME=      162.0 SECONDS, CPU UTILIZATION IS  77.52%

     --------------------------------------------------------
     ALDET CI PROPERTIES...FOR THE WAVEFUNCTION OF STATE    1
               USING THE EXPECTATION VALUE DENSITY
     --------------------------------------------------------

          -----------------
          ENERGY COMPONENTS
          -----------------

         WAVEFUNCTION NORMALIZATION =       1.0000000000

                ONE ELECTRON ENERGY =    -163.8716663897
                TWO ELECTRON ENERGY =      46.9112462007
           NUCLEAR REPULSION ENERGY =       8.1030266290
                                      ------------------
                       TOTAL ENERGY =    -108.8573935600

 ELECTRON-ELECTRON POTENTIAL ENERGY =      46.9112462007
  NUCLEUS-ELECTRON POTENTIAL ENERGY =    -272.5809237970
   NUCLEUS-NUCLEUS POTENTIAL ENERGY =       8.1030266290
                                      ------------------
             TOTAL POTENTIAL ENERGY =    -217.5666509673
               TOTAL KINETIC ENERGY =     108.7092574073
                 VIRIAL RATIO (V/T) =       2.0013626820

          ---------------------------------------
          MULLIKEN AND LOWDIN POPULATION ANALYSES
          ---------------------------------------

               ----- POPULATIONS IN EACH AO -----
                             MULLIKEN      LOWDIN
              1  N  1  S      2.00013     1.99632
              2  N  1  S      0.98096     0.98343
              3  N  1  S      1.01395     1.01411
              4  N  1  X      0.75972     0.72074
              5  N  1  Y      0.75972     0.72074
              6  N  1  Z      0.75880     0.71963
              7  N  1  X      0.24170     0.28068
              8  N  1  Y      0.24170     0.28068
              9  N  1  Z      0.24330     0.28366
             10  N  2  S      2.00013     1.99632
             11  N  2  S      0.98096     0.98343
             12  N  2  S      1.01395     1.01411
             13  N  2  X      0.75972     0.72074
             14  N  2  Y      0.75972     0.72074
             15  N  2  Z      0.75880     0.71963
             16  N  2  X      0.24170     0.28068
             17  N  2  Y      0.24170     0.28068
             18  N  2  Z      0.24330     0.28366

          ----- MULLIKEN ATOMIC OVERLAP POPULATIONS -----
          (OFF-DIAGONAL ELEMENTS NEED TO BE MULTIPLIED BY 2)

             1           2

    1    6.9962864
    2    0.0037136   6.9962864

          TOTAL MULLIKEN AND LOWDIN ATOMIC POPULATIONS
       ATOM         MULL.POP.    CHARGE          LOW.POP.     CHARGE
    1 N             7.000000    0.000000         7.000000    0.000000
    2 N             7.000000    0.000000         7.000000    0.000000

          ---------------------
          ELECTROSTATIC MOMENTS
          ---------------------

 POINT   1           X           Y           Z (BOHR)    CHARGE
                 0.000000    0.000000    3.023562        0.00 (A.U.)
         DX          DY          DZ         /D/  (DEBYE)
     0.000000    0.000000   -0.000000    0.000000
 ...... END OF PROPERTY EVALUATION ......
 CPU     0: STEP CPU TIME=     0.01 TOTAL CPU TIME=      125.6 (    2.1 MIN)
 TOTAL WALL CLOCK TIME=      162.5 SECONDS, CPU UTILIZATION IS  77.30%
             119866871  WORDS OF DYNAMIC MEMORY USED
 EXECUTION OF GAMESS TERMINATED NORMALLY Thu Jan 17 18:29:59 2019
 DDI: 305760 bytes (0.3 MB / 0 MWords) used by master data server.

 ----------------------------------------
 CPU timing information for all processes
 ========================================
 0: 117.448 + 8.296 = 125.744
 1: 117.216 + 9.484 = 126.700
 2: 117.516 + 9.20 = 126.536
 3: 117.500 + 10.208 = 127.708
 4: 117.408 + 9.188 = 126.596
 5: 117.672 + 7.664 = 125.336
 6: 116.508 + 9.604 = 126.112
 7: 117.368 + 8.272 = 125.640
 8: 117.840 + 7.96 = 124.936
 9: 116.492 + 8.704 = 125.196
 10: 117.120 + 8.840 = 125.960
 11: 117.352 + 7.424 = 124.776
 12: 0.428 + 4.952 = 5.380
 13: 0.00 + 0.04 = 0.04
 14: 0.00 + 0.08 = 0.08
 15: 0.00 + 0.08 = 0.08
 16: 0.00 + 0.08 = 0.08
 17: 0.00 + 0.08 = 0.08
 18: 0.04 + 0.04 = 0.08
 19: 0.04 + 0.00 = 0.04
 20: 0.04 + 0.04 = 0.08
 21: 0.00 + 0.08 = 0.08
 22: 0.00 + 0.04 = 0.04
 23: 0.00 + 0.08 = 0.08
 ----------------------------------------
 ddikick.x: exited gracefully.
unset echo
----- accounting info -----
Files used on the master node localhost were:
-rw-rw-r-- 1 maho maho    13429 Jan 17 18:29 ./N2.SV/3.2/N2.SV.fullCI.3.2.gamess.dat
-rw------- 1 maho maho     1813 Jan 17 18:27 ./N2.SV/3.2/N2.SV.fullCI.3.2.gamess.F05
-rw-rw-r-- 1 maho maho   180016 Jan 17 18:27 ./N2.SV/3.2/N2.SV.fullCI.3.2.gamess.F08
-rw-rw-r-- 1 maho maho     1376 Jan 17 18:27 ./N2.SV/3.2/N2.SV.fullCI.3.2.gamess.F09
-rw-rw-r-- 1 maho maho  1865040 Jan 17 18:29 ./N2.SV/3.2/N2.SV.fullCI.3.2.gamess.F10
-rw-rw-r-- 1 maho maho 38216480 Jan 17 18:29 ./N2.SV/3.2/N2.SV.fullCI.3.2.gamess.F12
-rw------- 1 maho maho     1813 Jan 17 18:27 ./N2.SV/3.2/N2.SV.fullCI.3.2.gamess.inp
-rw-rw-r-- 1 maho maho    49187 Jan 17 18:30 ./N2.SV/3.2/N2.SV.fullCI.3.2.gamess.log
ls: No match.
ls: No match.
ls: No match.
Thu Jan 17 18:30:02 JST 2019
0.0u 0.0s 2:45.93 0.0% 0+0k 0+8io 0pf+0w
