----- GAMESS execution script 'rungms' -----
This job is running on host localhost
under operating system Linux at Thu Jan 17 17:49:14 JST 2019
Available scratch disk space (Kbyte units) at beginning of the job is
Filesystem     1K-blocks      Used Available Use% Mounted on
/dev/sda1      895286904 141742248 708043628  17% /
GAMESS temporary binary files will be written to .
GAMESS supplementary output files will be written to .
Copying input file N2.SV/1.6/N2.SV.fullCI.1.6.gamess.inp to your run's scratch directory...
cp N2.SV/1.6/N2.SV.fullCI.1.6.gamess.inp ./N2.SV/1.6/N2.SV.fullCI.1.6.gamess.F05
unset echo
/work/pubchem/pm6/pkg/gamess_intel/ddikick.x /work/pubchem/pm6/pkg/gamess_intel/gamess.00.x N2.SV/1.6/N2.SV.fullCI.1.6.gamess -ddi 12 12 localhost localhost localhost localhost localhost localhost localhost localhost localhost localhost localhost localhost -scr .

 Distributed Data Interface kickoff program.
 Initiating 12 compute processes on 12 nodes to run the following command:
 /work/pubchem/pm6/pkg/gamess_intel/gamess.00.x N2.SV/1.6/N2.SV.fullCI.1.6.gamess 

          ******************************************************
          *         GAMESS VERSION =  5 DEC 2014 (R1)          *
          *             FROM IOWA STATE UNIVERSITY             *
          * M.W.SCHMIDT, K.K.BALDRIDGE, J.A.BOATZ, S.T.ELBERT, *
          *   M.S.GORDON, J.H.JENSEN, S.KOSEKI, N.MATSUNAGA,   *
          *          K.A.NGUYEN, S.J.SU, T.L.WINDUS,           *
          *       TOGETHER WITH M.DUPUIS, J.A.MONTGOMERY       *
          *         J.COMPUT.CHEM.  14, 1347-1363(1993)        *
          **************** 64 BIT INTEL VERSION ****************

  SINCE 1993, STUDENTS AND POSTDOCS WORKING AT IOWA STATE UNIVERSITY
  AND ALSO IN THEIR VARIOUS JOBS AFTER LEAVING ISU HAVE MADE IMPORTANT
  CONTRIBUTIONS TO THE CODE:
     IVANA ADAMOVIC, CHRISTINE AIKENS, YURI ALEXEEV, POOJA ARORA,
     ANDREY ASADCHEV, ROB BELL, PRADIPTA BANDYOPADHYAY, JONATHAN BENTZ,
     BRETT BODE, KURT BRORSEN, CALEB CARLIN, GALINA CHABAN, WEI CHEN,
     CHEOL HO CHOI, PAUL DAY, ALBERT DEFUSCO, NUWAN DESILVA, TIM DUDLEY,
     DMITRI FEDOROV, GRAHAM FLETCHER, MARK FREITAG, KURT GLAESEMANN,
     DAN KEMP, GRANT MERRILL, NORIYUKI MINEZAWA, JONATHAN MULLIN,
     TAKESHI NAGATA, SEAN NEDD, HEATHER NETZLOFF, BOSILJKA NJEGIC, RYAN OLSON,
     MIKE PAK, SPENCER PRUITT, LUKE ROSKOP, JIM SHOEMAKER, LYUDMILA SLIPCHENKO,
     TONY SMITH, SAROM SOK, JIE SONG, TETSUYA TAKETSUGU, SIMON WEBB,
     PENG XU, SOOHAENG YOO, FEDERICO ZAHARIEV

  ADDITIONAL CODE HAS BEEN PROVIDED BY COLLABORATORS IN OTHER GROUPS:
     IOWA STATE UNIVERSITY:
          JOE IVANIC, AARON WEST, LAIMUTIS BYTAUTAS, KLAUS RUEDENBERG
     UNIVERSITY OF TOKYO: KIMIHIKO HIRAO, TAKAHITO NAKAJIMA,
          TAKAO TSUNEDA, MUNEAKI KAMIYA, SUSUMU YANAGISAWA,
          KIYOSHI YAGI, MAHITO CHIBA, SEIKEN TOKURA, NAOAKI KAWAKAMI
     UNIVERSITY OF AARHUS: FRANK JENSEN
     UNIVERSITY OF IOWA: VISVALDAS KAIRYS, HUI LI
     NATIONAL INST. OF STANDARDS AND TECHNOLOGY: WALT STEVENS, DAVID GARMER
     UNIVERSITY OF PISA: BENEDETTA MENNUCCI, JACOPO TOMASI
     UNIVERSITY OF MEMPHIS: HENRY KURTZ, PRAKASHAN KORAMBATH
     UNIVERSITY OF ALBERTA: TOBY ZENG, MARIUSZ KLOBUKOWSKI
     UNIVERSITY OF NEW ENGLAND: MARK SPACKMAN
     MIE UNIVERSITY: HIROAKI UMEDA
     NAT. INST. OF ADVANCED INDUSTRIAL SCIENCE AND TECHNOLOGY: KAZUO KITAURA
     MICHIGAN STATE UNIVERSITY:
          KAROL KOWALSKI, MARTA WLOCH, JEFFREY GOUR, JESSE LUTZ,
          WEI LI, PIOTR PIECUCH
     UNIVERSITY OF SILESIA: MONIKA MUSIAL, STANISLAW KUCHARSKI
     FACULTES UNIVERSITAIRES NOTRE-DAME DE LA PAIX:
          OLIVIER QUINET, BENOIT CHAMPAGNE
     UNIVERSITY OF CALIFORNIA - SANTA BARBARA: BERNARD KIRTMAN
     INSTITUTE FOR MOLECULAR SCIENCE:
          KAZUYA ISHIMURA, MICHIO KATOUDA, AND SHIGERU NAGASE
     UNIVERSITY OF NOTRE DAME: ANNA POMOGAEVA, DAN CHIPMAN
     KYUSHU UNIVERSITY:
          HARUYUKI NAKANO,
          FENG LONG GU, JACEK KORCHOWIEC, MARCIN MAKOWSKI, AND YURIKO AOKI,
          HIROTOSHI MORI AND EISAKU MIYOSHI
     PENNSYLVANIA STATE UNIVERSITY:
          TZVETELIN IORDANOV, CHET SWALINA, JONATHAN SKONE,
          SHARON HAMMES-SCHIFFER
     WASEDA UNIVERSITY:
          MASATO KOBAYASHI, TOMOKO AKAMA, TSUGUKI TOUMA,
          TAKESHI YOSHIKAWA, YASUHIRO IKABATA, HIROMI NAKAI
     NANJING UNIVERSITY: SHUHUA LI
     UNIVERSITY OF NEBRASKA:
          PEIFENG SU, DEJUN SI, NANDUN THELLAMUREGE, YALI WANG, HUI LI
     UNIVERSITY OF ZURICH: ROBERTO PEVERATI, KIM BALDRIDGE
     N. COPERNICUS UNIVERSITY AND JACKSON STATE UNIVERSITY:
          MARIA BARYSZ
     UNIVERSITY OF COPENHAGEN: CASPER STEINMANN
     TOKYO INSTITUTE OF TECHNOLOGY: HIROYA NAKATA
     NAGOYA UNIVERSITY: YOSHIO NISHIMOTO, STEPHAN IRLE


 PARALLEL VERSION RUNNING ON       12 PROCESSORS IN       12 NODES.

 EXECUTION OF GAMESS BEGUN Thu Jan 17 17:49:14 2019

            ECHO OF THE FIRST FEW INPUT CARDS -
 INPUT CARD> $CONTRL SCFTYP=RHF CITYP=ALDET $END                                            
 INPUT CARD> $GUESS GUESS=HUCKEL $END                                                       
 INPUT CARD> $SYSTEM MWORDS=300 $END                                                        
 INPUT CARD> $CIDET SZ=0 GROUP=C2V NCORE=2 NACT=16 NELS=10 NSTGSS=6 $END                    
 INPUT CARD> $DATA                                                                          
 INPUT CARD>N2...HF...Double-zeta basis                                                     
 INPUT CARD>Cnv   2                                                                         
 INPUT CARD>                                                                                
 INPUT CARD>N     7.0    0.0      0.0     0.0                                               
 INPUT CARD>S   7                                                                           
 INPUT CARD>  1   5909.0000000              0.0011900                                       
 INPUT CARD>  2    887.5000000              0.0090990                                       
 INPUT CARD>  3    204.7000000              0.0441450                                       
 INPUT CARD>  4     59.8400000              0.1504640                                       
 INPUT CARD>  5     20.0000000              0.3567410                                       
 INPUT CARD>  6      7.1930000              0.4465330                                       
 INPUT CARD>  7      2.6860000              0.1456030                                       
 INPUT CARD>S   2                                                                           
 INPUT CARD>  1      7.1930000             -0.1604050                                       
 INPUT CARD>  2      0.7000000              1.0582150                                       
 INPUT CARD>S   1                                                                           
 INPUT CARD>  1      0.2133000              1.0000000                                       
 INPUT CARD>P   4                                                                           
 INPUT CARD>  1     26.7900000              0.0182540                                       
 INPUT CARD>  2      5.9560000              0.1164610                                       
 INPUT CARD>  3      1.7070000              0.3901780                                       
 INPUT CARD>  4      0.5314000              0.6371020                                       
 INPUT CARD>P   1                                                                           
 INPUT CARD>  1      0.1654000              1.0000000                                       
 INPUT CARD>                                                                                
 INPUT CARD>N     7.0    0.0      0.0     1.6                                               
 INPUT CARD>S   7                                                                           
 INPUT CARD>  1   5909.0000000              0.0011900                                       
 INPUT CARD>  2    887.5000000              0.0090990                                       
 INPUT CARD>  3    204.7000000              0.0441450                                       
 INPUT CARD>  4     59.8400000              0.1504640                                       
 INPUT CARD>  5     20.0000000              0.3567410                                       
 INPUT CARD>  6      7.1930000              0.4465330                                       
 INPUT CARD>  7      2.6860000              0.1456030                                       
 INPUT CARD>S   2                                                                           
 INPUT CARD>  1      7.1930000             -0.1604050                                       
 INPUT CARD>  2      0.7000000              1.0582150                                       
 INPUT CARD>S   1                                                                           
 INPUT CARD>  1      0.2133000              1.0000000                                       
 INPUT CARD>P   4                                                                           
 INPUT CARD>  1     26.7900000              0.0182540                                       
 INPUT CARD>  2      5.9560000              0.1164610                                       
 INPUT CARD>  3      1.7070000              0.3901780                                       
 INPUT CARD>  4      0.5314000              0.6371020                                       
 INPUT CARD>P   1                                                                           
  300000000 WORDS OF MEMORY AVAILABLE


     RUN TITLE
     ---------
 N2...HF...Double-zeta basis                                                     

 THE POINT GROUP OF THE MOLECULE IS CNV     
 THE ORDER OF THE PRINCIPAL AXIS IS     2

 ATOM      ATOMIC                      COORDINATES (BOHR)
           CHARGE         X                   Y                   Z
 N           7.0     0.0000000000        0.0000000000        0.0000000000
 N           7.0     0.0000000000        0.0000000000        3.0235615804

          INTERNUCLEAR DISTANCES (ANGS.)
          ------------------------------

                1 N          2 N     

   1 N       0.0000000    1.6000000 *
   2 N       1.6000000 *  0.0000000  

  * ... LESS THAN  3.000


     ATOMIC BASIS SET
     ----------------
 THE CONTRACTED PRIMITIVE FUNCTIONS HAVE BEEN UNNORMALIZED
 THE CONTRACTED BASIS FUNCTIONS ARE NOW NORMALIZED TO UNITY

  SHELL TYPE  PRIMITIVE        EXPONENT          CONTRACTION COEFFICIENT(S)

 N         

      1   S       1          5909.0000000    0.001189999548
      1   S       2           887.5000000    0.009098996542
      1   S       3           204.7000000    0.044144983225
      1   S       4            59.8400000    0.150463942825
      1   S       5            20.0000000    0.356740864442
      1   S       6             7.1930000    0.446532830321
      1   S       7             2.6860000    0.145602944672

      2   S       8             7.1930000   -0.160405033446
      2   S       9             0.7000000    1.058215220651

      3   S      10             0.2133000    1.000000000000

      4   P      11            26.7900000    0.018253998243
      4   P      12             5.9560000    0.116460988791
      4   P      13             1.7070000    0.390177962446
      4   P      14             0.5314000    0.637101938680

      5   P      15             0.1654000    1.000000000000

 N         

      6   S      16          5909.0000000    0.001189999548
      6   S      17           887.5000000    0.009098996542
      6   S      18           204.7000000    0.044144983225
      6   S      19            59.8400000    0.150463942825
      6   S      20            20.0000000    0.356740864442
      6   S      21             7.1930000    0.446532830321
      6   S      22             2.6860000    0.145602944672

      7   S      23             7.1930000   -0.160405033446
      7   S      24             0.7000000    1.058215220651

      8   S      25             0.2133000    1.000000000000

      9   P      26            26.7900000    0.018253998243
      9   P      27             5.9560000    0.116460988791
      9   P      28             1.7070000    0.390177962446
      9   P      29             0.5314000    0.637101938680

     10   P      30             0.1654000    1.000000000000

 TOTAL NUMBER OF BASIS SET SHELLS             =   10
 NUMBER OF CARTESIAN GAUSSIAN BASIS FUNCTIONS =   18
 NUMBER OF ELECTRONS                          =   14
 CHARGE OF MOLECULE                           =    0
 SPIN MULTIPLICITY                            =    1
 NUMBER OF OCCUPIED ORBITALS (ALPHA)          =    7
 NUMBER OF OCCUPIED ORBITALS (BETA )          =    7
 TOTAL NUMBER OF ATOMS                        =    2
 THE NUCLEAR REPULSION ENERGY IS       16.2060532580

 THIS MOLECULE IS RECOGNIZED AS BEING LINEAR,
 ORBITAL LZ DEGENERACY TOLERANCE ETOLLZ= 1.00E-06

     $CONTRL OPTIONS
     ---------------
 SCFTYP=RHF          RUNTYP=ENERGY       EXETYP=RUN     
 MPLEVL=       0     CITYP =ALDET        CCTYP =NONE         VBTYP =NONE    
 DFTTYP=NONE         TDDFT =NONE    
 MULT  =       1     ICHARG=       0     NZVAR =       0     COORD =UNIQUE  
 PP    =NONE         RELWFN=NONE         LOCAL =NONE         NUMGRD=       F
 ISPHER=      -1     NOSYM =       0     MAXIT =      30     UNITS =ANGS    
 PLTORB=       F     MOLPLT=       F     AIMPAC=       F     FRIEND=        
 NPRINT=       7     IREST =       0     GEOM  =INPUT   
 NORMF =       0     NORMP =       0     ITOL  =      20     ICUT  =       9
 INTTYP=BEST         GRDTYP=BEST         QMTTOL= 1.0E-06

     $SYSTEM OPTIONS
     ---------------
  REPLICATED MEMORY=   300000000 WORDS (ON EVERY NODE).
 DISTRIBUTED MEMDDI=           0 MILLION WORDS IN AGGREGATE,
 MEMDDI DISTRIBUTED OVER  12 PROCESSORS IS           0 WORDS/PROCESSOR.
 TOTAL MEMORY REQUESTED ON EACH PROCESSOR=   300000000 WORDS.
 TIMLIM=      525600.00 MINUTES, OR     365.0 DAYS.
 PARALL= T  BALTYP=  DLB     KDIAG=    0  COREFL= F
 MXSEQ2=     300 MXSEQ3=     150  mem10=         0

          ----------------
          PROPERTIES INPUT
          ----------------

     MOMENTS            FIELD           POTENTIAL          DENSITY
 IEMOM =       1   IEFLD =       0   IEPOT =       0   IEDEN =       0
 WHERE =COMASS     WHERE =NUCLEI     WHERE =NUCLEI     WHERE =NUCLEI  
 OUTPUT=BOTH       OUTPUT=BOTH       OUTPUT=BOTH       OUTPUT=BOTH    
 IEMINT=       0   IEFINT=       0                     IEDINT=       0
                                                       MORB  =       0
          EXTRAPOLATION IN EFFECT
          SOSCF IN EFFECT
 ORBITAL PRINTING OPTION: NPREO=     1    18     2     1

     -------------------------------
     INTEGRAL TRANSFORMATION OPTIONS
     -------------------------------
     NWORD  =            0
     CUTOFF = 1.0E-09     MPTRAN =       0
     DIRTRF =       F     AOINTS =DUP     

          ----------------------
          INTEGRAL INPUT OPTIONS
          ----------------------
 NOPK  =       1 NORDER=       0 SCHWRZ=       F

     ------------------------------------------
     THE POINT GROUP IS CNV, NAXIS= 2, ORDER= 4
     ------------------------------------------

     DIMENSIONS OF THE SYMMETRY SUBSPACES ARE
 A1  =   10     A2  =    0     B1  =    4     B2  =    4

 ..... DONE SETTING UP THE RUN .....
 CPU     0: STEP CPU TIME=     0.01 TOTAL CPU TIME=        0.0 (    0.0 MIN)
 TOTAL WALL CLOCK TIME=        0.0 SECONDS, CPU UTILIZATION IS  50.00%

          ********************
          1 ELECTRON INTEGRALS
          ********************
 ...... END OF ONE-ELECTRON INTEGRALS ......
 CPU     0: STEP CPU TIME=     0.01 TOTAL CPU TIME=        0.0 (    0.0 MIN)
 TOTAL WALL CLOCK TIME=        0.1 SECONDS, CPU UTILIZATION IS  33.33%

          -------------
          GUESS OPTIONS
          -------------
          GUESS =HUCKEL            NORB  =       0          NORDER=       0
          MIX   =       F          PRTMO =       F          PUNMO =       F
          TOLZ  = 1.0E-08          TOLE  = 1.0E-05
          SYMDEN=       F          PURIFY=       F

 INITIAL GUESS ORBITALS GENERATED BY HUCKEL   ROUTINE.
 HUCKEL GUESS REQUIRES      4352 WORDS.

 SYMMETRIES FOR INITIAL GUESS ORBITALS FOLLOW.   BOTH SET(S).
     7 ORBITALS ARE OCCUPIED (    2 CORE ORBITALS).
     3=A1       4=A1       5=B2       6=B1       7=A1       8=B1       9=B2  
    10=A1      11=A1      12=A1      13=A1      14=A1      15=B1      16=B1  
    17=B2  
 ...... END OF INITIAL ORBITAL SELECTION ......
 CPU     0: STEP CPU TIME=     0.00 TOTAL CPU TIME=        0.0 (    0.0 MIN)
 TOTAL WALL CLOCK TIME=        0.1 SECONDS, CPU UTILIZATION IS  28.57%

                    ----------------------
                    AO INTEGRAL TECHNOLOGY
                    ----------------------
     S,P,L SHELL ROTATED AXIS INTEGRALS, REPROGRAMMED BY
        KAZUYA ISHIMURA (IMS) AND JOSE SIERRA (SYNSTAR).
     S,P,D,L SHELL ROTATED AXIS INTEGRALS PROGRAMMED BY
        KAZUYA ISHIMURA (INSTITUTE FOR MOLECULAR SCIENCE).
     S,P,D,F,G SHELL TO TOTAL QUARTET ANGULAR MOMENTUM SUM 5,
        ERIC PROGRAM BY GRAHAM FLETCHER (ELORET AND NASA ADVANCED
        SUPERCOMPUTING DIVISION, AMES RESEARCH CENTER).
     S,P,D,F,G,L SHELL GENERAL RYS QUADRATURE PROGRAMMED BY
        MICHEL DUPUIS (PACIFIC NORTHWEST NATIONAL LABORATORY).

          --------------------
          2 ELECTRON INTEGRALS
          --------------------

 THE -PK- OPTION IS OFF, THE INTEGRALS ARE NOT IN SUPERMATRIX FORM.
 STORING   15000 INTEGRALS/RECORD ON DISK, USING 12 BYTES/INTEGRAL.
 TWO ELECTRON INTEGRAL EVALUATION REQUIRES   89411 WORDS OF MEMORY.
 II,JST,KST,LST =  1  1  1  1 NREC =         1 INTLOC =    1
 II,JST,KST,LST =  2  1  1  1 NREC =         1 INTLOC =    2
 II,JST,KST,LST =  3  1  1  1 NREC =         1 INTLOC =    3
 II,JST,KST,LST =  4  1  1  1 NREC =         1 INTLOC =    9
 II,JST,KST,LST =  5  1  1  1 NREC =         1 INTLOC =    9
 II,JST,KST,LST =  6  1  1  1 NREC =         1 INTLOC =   69
 II,JST,KST,LST =  7  1  1  1 NREC =         1 INTLOC =   69
 II,JST,KST,LST =  8  1  1  1 NREC =         1 INTLOC =  158
 II,JST,KST,LST =  9  1  1  1 NREC =         1 INTLOC =  223
 II,JST,KST,LST = 10  1  1  1 NREC =         1 INTLOC =  409
 TOTAL NUMBER OF NONZERO TWO-ELECTRON INTEGRALS =                4343
         12 INTEGRAL RECORDS WERE STORED ON DISK FILE  8.
  ...... END OF TWO-ELECTRON INTEGRALS .....
 CPU     0: STEP CPU TIME=     0.02 TOTAL CPU TIME=        0.0 (    0.0 MIN)
 TOTAL WALL CLOCK TIME=        0.1 SECONDS, CPU UTILIZATION IS  44.44%

          --------------------------
                 RHF SCF CALCULATION
          --------------------------

     NUCLEAR ENERGY =        16.2060532580
     MAXIT =   30     NPUNCH=    2
     EXTRAP=T  DAMP=F  SHIFT=F  RSTRCT=F  DIIS=F  DEM=F  SOSCF=T
     DENSITY MATRIX CONV=  1.00E-06
     SOSCF WILL OPTIMIZE      77 ORBITAL ROTATIONS, SOGTOL=   0.250
     MEMORY REQUIRED FOR RHF ITERS=     32828 WORDS.

 ITER EX DEM     TOTAL ENERGY        E CHANGE  DENSITY CHANGE     ORB. GRAD
   1  0  0     -108.3394277394  -108.3394277394   0.202639003   0.000000000
          ---------------START SECOND ORDER SCF---------------
   2  1  0     -108.5633936014    -0.2239658619   0.080288748   0.067334537
   3  2  0     -108.5781055885    -0.0147119872   0.016213583   0.015796678
   4  3  0     -108.5793676614    -0.0012620729   0.002983698   0.001345446
   5  4  0     -108.5793763562    -0.0000086947   0.000577646   0.000398680
   6  5  0     -108.5793768449    -0.0000004887   0.000060517   0.000035500
   7  6  0     -108.5793768519    -0.0000000070   0.000023363   0.000007339
   8  7  0     -108.5793768522    -0.0000000003   0.000001547   0.000000663
   9  8  0     -108.5793768522    -0.0000000000   0.000000176   0.000000136

          -----------------
          DENSITY CONVERGED
          -----------------
     TIME TO FORM FOCK OPERATORS=       0.0 SECONDS (       0.0 SEC/ITER)
     TIME TO SOLVE SCF EQUATIONS=       0.0 SECONDS (       0.0 SEC/ITER)

 FINAL RHF ENERGY IS     -108.5793768522 AFTER   9 ITERATIONS

 LZ VALUE ANALYSIS FOR THE MOS
 ----------------------------------------
 MO     1 (    1) HAS LZ(WEIGHT)= 0.00(100.0%) 
 MO     2 (    2) HAS LZ(WEIGHT)= 0.00(100.0%) 
 MO     3 (    3) HAS LZ(WEIGHT)= 0.00(100.0%) 
 MO     4 (    4) HAS LZ(WEIGHT)= 0.00(100.0%) 
 MO     5 (    5) HAS LZ(WEIGHT)= 0.00(100.0%) 
 MO     6 (    6) HAS LZ(WEIGHT)=-1.00( 50.0%)  1.00( 50.0%) 
 MO     7 (    6) HAS LZ(WEIGHT)=-1.00( 50.0%)  1.00( 50.0%) 
 MO     8 (    7) HAS LZ(WEIGHT)=-1.00( 50.0%)  1.00( 50.0%) 
 MO     9 (    7) HAS LZ(WEIGHT)=-1.00( 50.0%)  1.00( 50.0%) 
 MO    10 (    8) HAS LZ(WEIGHT)= 0.00(100.0%) 
 MO    11 (    9) HAS LZ(WEIGHT)= 0.00(100.0%) 
 MO    12 (   10) HAS LZ(WEIGHT)=-1.00( 50.0%)  1.00( 50.0%) 
 MO    13 (   10) HAS LZ(WEIGHT)=-1.00( 50.0%)  1.00( 50.0%) 
 MO    14 (   11) HAS LZ(WEIGHT)= 0.00(100.0%) 
 MO    15 (   12) HAS LZ(WEIGHT)=-1.00( 50.0%)  1.00( 50.0%) 
 MO    16 (   12) HAS LZ(WEIGHT)=-1.00( 50.0%)  1.00( 50.0%) 
 MO    17 (   13) HAS LZ(WEIGHT)= 0.00(100.0%) 
 MO    18 (   14) HAS LZ(WEIGHT)= 0.00(100.0%) 

          ------------
          EIGENVECTORS
          ------------

                      1          2          3          4          5
                  -15.8138   -15.8132    -1.2234    -0.9184    -0.5589
                     A1         A1         A1         A1         A1  
    1  N  1  S    0.706895  -0.706958  -0.162043  -0.173898  -0.048481
    2  N  1  S    0.000143   0.000191   0.370470   0.414271   0.112795
    3  N  1  S    0.000951  -0.001342   0.287084   0.409165   0.188944
    4  N  1  X    0.000000   0.000000   0.000000   0.000000   0.000000
    5  N  1  Y    0.000000   0.000000   0.000000   0.000000   0.000000
    6  N  1  Z    0.001108  -0.000825   0.128891  -0.116312  -0.525052
    7  N  1  X    0.000000   0.000000   0.000000   0.000000   0.000000
    8  N  1  Y    0.000000   0.000000   0.000000   0.000000   0.000000
    9  N  1  Z   -0.000457   0.000012   0.018856  -0.014421  -0.178022
   10  N  2  S    0.706895   0.706958  -0.162043   0.173898  -0.048481
   11  N  2  S    0.000143  -0.000191   0.370470  -0.414271   0.112795
   12  N  2  S    0.000951   0.001342   0.287084  -0.409165   0.188944
   13  N  2  X    0.000000   0.000000   0.000000   0.000000   0.000000
   14  N  2  Y    0.000000   0.000000   0.000000   0.000000   0.000000
   15  N  2  Z   -0.001108  -0.000825  -0.128891  -0.116312   0.525052
   16  N  2  X    0.000000   0.000000   0.000000   0.000000   0.000000
   17  N  2  Y    0.000000   0.000000   0.000000   0.000000   0.000000
   18  N  2  Z    0.000457   0.000012  -0.018856  -0.014421   0.178022

                      6          7          8          9         10
                   -0.4774    -0.4774    -0.0360    -0.0360     0.1784
                     B1         B2         B1         B2         A1  
    1  N  1  S    0.000000   0.000000   0.000000   0.000000  -0.082725
    2  N  1  S    0.000000   0.000000   0.000000   0.000000   0.170005
    3  N  1  S    0.000000   0.000000   0.000000   0.000000   0.713012
    4  N  1  X    0.484404   0.000000  -0.530627   0.000000   0.000000
    5  N  1  Y    0.000000   0.484404   0.000000  -0.530627   0.000000
    6  N  1  Z    0.000000   0.000000   0.000000   0.000000   0.530406
    7  N  1  X    0.247597   0.000000  -0.387649   0.000000   0.000000
    8  N  1  Y    0.000000   0.247597   0.000000  -0.387649   0.000000
    9  N  1  Z    0.000000   0.000000   0.000000   0.000000   0.792016
   10  N  2  S    0.000000   0.000000   0.000000   0.000000   0.082725
   11  N  2  S    0.000000   0.000000   0.000000   0.000000  -0.170005
   12  N  2  S    0.000000   0.000000   0.000000   0.000000  -0.713012
   13  N  2  X    0.484404   0.000000   0.530627   0.000000   0.000000
   14  N  2  Y    0.000000   0.484404   0.000000   0.530627   0.000000
   15  N  2  Z    0.000000   0.000000   0.000000   0.000000   0.530406
   16  N  2  X    0.247597   0.000000   0.387649   0.000000   0.000000
   17  N  2  Y    0.000000   0.247597   0.000000   0.387649   0.000000
   18  N  2  Z    0.000000   0.000000   0.000000   0.000000   0.792016

                     11         12         13         14         15
                    0.5868     0.6351     0.6351     0.7044     0.7106
                     A1         B1         B2         A1         B1  
    1  N  1  S   -0.024918   0.000000   0.000000  -0.027943   0.000000
    2  N  1  S    0.012141   0.000000   0.000000   0.231741   0.000000
    3  N  1  S    0.797709   0.000000   0.000000  -0.469263   0.000000
    4  N  1  X    0.000000   0.675943   0.000000   0.000000  -0.657114
    5  N  1  Y    0.000000   0.000000   0.675943   0.000000   0.000000
    6  N  1  Z   -0.666406   0.000000   0.000000  -0.603552   0.000000
    7  N  1  X    0.000000  -0.655881   0.000000   0.000000   1.065264
    8  N  1  Y    0.000000   0.000000  -0.655881   0.000000   0.000000
    9  N  1  Z    1.280197   0.000000   0.000000   0.857239   0.000000
   10  N  2  S    0.024918   0.000000   0.000000  -0.027943   0.000000
   11  N  2  S   -0.012141   0.000000   0.000000   0.231741   0.000000
   12  N  2  S   -0.797709   0.000000   0.000000  -0.469263   0.000000
   13  N  2  X    0.000000   0.675943   0.000000   0.000000   0.657114
   14  N  2  Y    0.000000   0.000000   0.675943   0.000000   0.000000
   15  N  2  Z   -0.666406   0.000000   0.000000   0.603552   0.000000
   16  N  2  X    0.000000  -0.655881   0.000000   0.000000  -1.065264
   17  N  2  Y    0.000000   0.000000  -0.655881   0.000000   0.000000
   18  N  2  Z    1.280197   0.000000   0.000000  -0.857239   0.000000

                     16         17         18
                    0.7106     0.9530     1.3568
                     B2         A1         A1  
    1  N  1  S    0.000000  -0.091523   0.045104
    2  N  1  S    0.000000   1.120704  -1.397180
    3  N  1  S    0.000000  -0.901923   2.740688
    4  N  1  X    0.000000   0.000000   0.000000
    5  N  1  Y   -0.657114   0.000000   0.000000
    6  N  1  Z    0.000000   0.194531   0.029949
    7  N  1  X    0.000000   0.000000   0.000000
    8  N  1  Y    1.065264   0.000000   0.000000
    9  N  1  Z    0.000000  -0.213070   1.206810
   10  N  2  S    0.000000  -0.091523  -0.045104
   11  N  2  S    0.000000   1.120704   1.397180
   12  N  2  S    0.000000  -0.901923  -2.740688
   13  N  2  X    0.000000   0.000000   0.000000
   14  N  2  Y    0.657114   0.000000   0.000000
   15  N  2  Z    0.000000  -0.194531   0.029949
   16  N  2  X    0.000000   0.000000   0.000000
   17  N  2  Y   -1.065264   0.000000   0.000000
   18  N  2  Z    0.000000   0.213070   1.206810
 ...... END OF RHF CALCULATION ......
 CPU     0: STEP CPU TIME=     0.01 TOTAL CPU TIME=        0.0 (    0.0 MIN)
 TOTAL WALL CLOCK TIME=        0.1 SECONDS, CPU UTILIZATION IS  50.00%

     ----------------------------------------------------------------
     PROPERTY VALUES FOR THE RHF   SELF-CONSISTENT FIELD WAVEFUNCTION
     ----------------------------------------------------------------

          -----------------
          ENERGY COMPONENTS
          -----------------

         WAVEFUNCTION NORMALIZATION =       1.0000000000

                ONE ELECTRON ENERGY =    -179.0059591669
                TWO ELECTRON ENERGY =      54.2205290567
           NUCLEAR REPULSION ENERGY =      16.2060532580
                                      ------------------
                       TOTAL ENERGY =    -108.5793768522

 ELECTRON-ELECTRON POTENTIAL ENERGY =      54.2205290567
  NUCLEUS-ELECTRON POTENTIAL ENERGY =    -286.4098300457
   NUCLEUS-NUCLEUS POTENTIAL ENERGY =      16.2060532580
                                      ------------------
             TOTAL POTENTIAL ENERGY =    -215.9832477310
               TOTAL KINETIC ENERGY =     107.4038708788
                 VIRIAL RATIO (V/T) =       2.0109447263

  ...... PI ENERGY ANALYSIS ......

 ENERGY ANALYSIS:
            FOCK ENERGY=    -70.5649012314
          BARE H ENERGY=   -179.0059591669
     ELECTRONIC ENERGY =   -124.7854301991
         KINETIC ENERGY=    107.4038708788
          N-N REPULSION=     16.2060532580
           TOTAL ENERGY=   -108.5793769411
        SIGMA PART(1+2)=   -110.2995912920
               (K,V1,2)=    101.4604029989   -253.4042092727     41.6442149819
           PI PART(1+2)=    -14.4858389072
               (K,V1,2)=      5.9434678800    -33.0056207730     12.5763139859
  SIGMA SKELETON, ERROR=    -94.0935380340      0.0000000000
             MIXED PART= 0.00000E+00 0.00000E+00 0.00000E+00 0.00000E+00
 ...... END OF PI ENERGY ANALYSIS ......

          ---------------------------------------
          MULLIKEN AND LOWDIN POPULATION ANALYSES
          ---------------------------------------

               ----- POPULATIONS IN EACH AO -----
                             MULLIKEN      LOWDIN
              1  N  1  S      2.00004     1.99586
              2  N  1  S      1.02735     0.98013
              3  N  1  S      0.91335     0.83436
              4  N  1  X      0.65498     0.60388
              5  N  1  Y      0.65498     0.60388
              6  N  1  Z      0.86651     0.80267
              7  N  1  X      0.34502     0.39612
              8  N  1  Y      0.34502     0.39612
              9  N  1  Z      0.19275     0.38698
             10  N  2  S      2.00004     1.99586
             11  N  2  S      1.02735     0.98013
             12  N  2  S      0.91335     0.83436
             13  N  2  X      0.65498     0.60388
             14  N  2  Y      0.65498     0.60388
             15  N  2  Z      0.86651     0.80267
             16  N  2  X      0.34502     0.39612
             17  N  2  Y      0.34502     0.39612
             18  N  2  Z      0.19275     0.38698

          ----- MULLIKEN ATOMIC OVERLAP POPULATIONS -----
          (OFF-DIAGONAL ELEMENTS NEED TO BE MULTIPLIED BY 2)

             1           2

    1    6.6097291
    2    0.3902709   6.6097291

          TOTAL MULLIKEN AND LOWDIN ATOMIC POPULATIONS
       ATOM         MULL.POP.    CHARGE          LOW.POP.     CHARGE
    1 N             7.000000   -0.000000         7.000000    0.000000
    2 N             7.000000   -0.000000         7.000000    0.000000

          ---------------------
          ELECTROSTATIC MOMENTS
          ---------------------

 POINT   1           X           Y           Z (BOHR)    CHARGE
                 0.000000    0.000000    1.511781        0.00 (A.U.)
         DX          DY          DZ         /D/  (DEBYE)
     0.000000    0.000000    0.000000    0.000000
 ...... END OF PROPERTY EVALUATION ......
 CPU     0: STEP CPU TIME=     0.00 TOTAL CPU TIME=        0.0 (    0.0 MIN)
 TOTAL WALL CLOCK TIME=        0.1 SECONDS, CPU UTILIZATION IS  38.46%

 DETERMINANT CI OPTIONS   NRNFG   NPFLG
 INTEGRAL TRANSFORMATION    1       0
 DIAGONALIZE HAMILTONIAN    1       0
 FORM 1E- DENSITY MATRIX    1       0
 FORM 2E- DENSITY MATRIX    0       0

     --------------------------------------------------
          AMES LABORATORY DETERMINANTAL FULL CI
     PROGRAM WRITTEN BY JOE IVANIC AND KLAUS RUEDENBERG
     --------------------------------------------------

 THE POINT GROUP                  =   C2V     
 THE STATE SYMMETRY               =   A1      
 NUMBER OF CORE ORBITALS          =    2
 NUMBER OF ACTIVE ORBITALS        =   16
 NUMBER OF ALPHA ELECTRONS        =    7 (   5 ACTIVE)
 NUMBER OF BETA ELECTRONS         =    7 (   5 ACTIVE)
 NUMBER OF OCCUPIED ORBITALS      =   18
 NUMBER OF CI STATES REQUESTED    =    1
 NUMBER OF CI STARTING VECTORS    =    6
 MAX. NO. OF CI EXPANSION VECTORS =   12
 SIZE OF INITIAL CI GUESS MATRIX  =  300
 MAX. NO. OF CI ITERS/STATE       =  100
 CI DIAGONALIZATION CRITERION     = 1.00E-06
 CI PROPERTIES WILL BE FOUND FOR ROOT NUMBER   1
 1E- DENSITY MATRIX OPTIONS ARE 1

 CORRELATION ENERGY ANALYSIS      =    F

 SYMMETRIES FOR THE   2 CORE,  16 ACTIVE ARE

     CORE= A1    A1  

   ACTIVE= A1    A1    A1    B1    B2    B1    B2    A1    A1    B1  
           B2    A1    B1    B2    A1    A1  

     --------------------------------------------
     PARTIAL TWO ELECTRON INTEGRAL TRANSFORMATION
     --------------------------------------------

 NUMBER OF CORE MOLECULAR ORBITALS     =    2
 NUMBER OF OCCUPIED MOLECULAR ORBITALS =   18
 TOTAL NUMBER OF MOLECULAR ORBITALS    =   18
 TOTAL NUMBER OF ATOMIC ORBITALS       =   18
 THRESHOLD FOR KEEPING TRANSFORMED 2E- INTEGRALS = 1.000E-09

 -------------------------------     ------------------------------
 DISTRIBUTED DATA TRANSFORMATION     PROGRAM WRITTEN BY G. FLETCHER
 -------------------------------     ------------------------------

 THE DISTRIBUTED MEMORY REQUIRED FOR THIS STEP IS MEMDDI=         1 MWORDS
 CREATING DISTRIBUTED STORAGE FOR [OCC OCC|OCC OCC] INTEGRALS
 DDI: Creating Array [0] - 171 x 171 = 29241 words.
 CREATING WORKSPACE OF SIZE VVOO
 DDI: Creating Array [1] - 171 x 171 = 29241 words.
 FOR   12 PROCESSORS, THE REPLICATED MEMORY NEEDED IS       58507 WORDS.

      DIRECT 4-INDEX TRANSFORMATION 
      SCHWARZ INEQUALITY TEST SKIPPED          0 INTEGRAL BLOCKS
 ----- FROZEN CORE ENERGY =       -97.4020096942
 ... END OF INTEGRAL TRANSFORMATION ...
 CPU     0: STEP CPU TIME=     0.00 TOTAL CPU TIME=        0.0 (    0.0 MIN)
 TOTAL WALL CLOCK TIME=        0.2 SECONDS, CPU UTILIZATION IS  31.25%

     --------------------------------------------------
          AMES LABORATORY DETERMINANTAL FULL CI
     PROGRAM WRITTEN BY JOE IVANIC AND KLAUS RUEDENBERG
     --------------------------------------------------

 THE NUMBER OF DETERMINANTS HAVING SPACE SYMMETRY A1 
 IN POINT GROUP C2V  WITH SZ=  0.0 IS        4777056
 THE DETERMINANT FULL CI REQUIRES       119865995 WORDS
 INITIAL CI VECTOR GUESS TIME  :          1.6
 INITIAL FULL CI ITERATION TIME:          6.1

 ITERATION      ENERGY           GRADIENT
     0     -108.8252589210     0.53442242
     1     -108.9440778554     0.22890362
     2     -108.9581670387     0.11629689
     3     -108.9613232141     0.06042812
     4     -108.9621770627     0.03213234
     5     -108.9624368060     0.02017090
     6     -108.9625400761     0.01218929
     7     -108.9625675414     0.00672935
     8     -108.9625805798     0.00439095
     9     -108.9625858793     0.00286039
    10     -108.9625876500     0.00146983
    11     -108.9625881388     0.00076149
    12     -108.9625883105     0.00037174
    13     -108.9625883412     0.00020269
    14     -108.9625883550     0.00013644
    15     -108.9625883617     0.00009658
    16     -108.9625883638     0.00005116
    17     -108.9625883644     0.00002797
    18     -108.9625883646     0.00001811
    19     -108.9625883647     0.00001003
    20     -108.9625883647     0.00000762
    21     -108.9625883647     0.00000536
    22     -108.9625883647     0.00000271
    23     -108.9625883647     0.00000148
    24     -108.9625883647     0.00000098

 CONVERGED STATE    1 ENERGY=     -108.9625883647 IN   24 ITERS

 ALL STATES CONVERGED.

 CI EIGENVECTORS WILL BE LABELED IN GROUP=C2V     
 PRINTING CI COEFFICIENTS LARGER THAN  0.050000

 STATE   1  ENERGY=      -108.9625883647  S=  0.00  SZ=  0.00  SPACE SYM=A1  

      ALPHA       |      BETA        | COEFFICIENT
------------------|------------------|------------
 1111100000000000 | 1111100000000000 |   0.8308315
 1111001000000000 | 1111001000000000 |  -0.2417688
 1110110000000000 | 1110110000000000 |  -0.2417688
 1111001000000000 | 1110110000000000 |   0.1159681
 1110110000000000 | 1111001000000000 |   0.1159681
 1110101000000000 | 1111010000000000 |   0.1104639
 1111010000000000 | 1110101000000000 |   0.1104639
 1110011000000000 | 1110011000000000 |   0.1087643
 1101100100000000 | 1101100100000000 |  -0.0753159
 1110110000000000 | 1101100100000000 |   0.0611483
 1101100100000000 | 1110110000000000 |   0.0611483
 1101100100000000 | 1111001000000000 |  -0.0611483
 1111001000000000 | 1101100100000000 |  -0.0611483
 ..... DONE WITH DETERMINANT CI COMPUTATION .....
 CPU     0: STEP CPU TIME=    70.53 TOTAL CPU TIME=       70.6 (    1.2 MIN)
 TOTAL WALL CLOCK TIME=       89.0 SECONDS, CPU UTILIZATION IS  79.28%

     ---------------------------
     ONE PARTICLE DENSITY MATRIX
     ---------------------------

 DENSITY MATRIX WILL BE SAVED FOR   1-TH STATE WITH S= 0.00

 CI EIGENSTATE   1 TOTAL ENERGY =     -108.9625883647

          NATURAL ORBITALS IN ATOMIC ORBITAL BASIS
          ----------------------------------------

                      1          2          3          4          5
                    2.0000     2.0000     1.9828     1.9704     1.8967
                     A1         A1         A1         A1         A1  
    1  N  1  S    0.706895   0.706958  -0.167721  -0.174153  -0.004083
    2  N  1  S    0.000143  -0.000191   0.371392   0.406548   0.020801
    3  N  1  S    0.000951   0.001342   0.346128   0.421821  -0.107694
    4  N  1  X    0.000000   0.000000   0.000000   0.000000   0.000000
    5  N  1  Y    0.000000   0.000000   0.000000   0.000000   0.000000
    6  N  1  Z    0.001108   0.000825  -0.032037  -0.095839   0.540018
    7  N  1  X    0.000000   0.000000   0.000000   0.000000   0.000000
    8  N  1  Y    0.000000   0.000000   0.000000   0.000000   0.000000
    9  N  1  Z   -0.000457  -0.000012  -0.041460  -0.020650   0.175409
   10  N  2  S    0.706895  -0.706958  -0.167721   0.174153  -0.004083
   11  N  2  S    0.000143   0.000191   0.371392  -0.406548   0.020801
   12  N  2  S    0.000951  -0.001342   0.346128  -0.421821  -0.107694
   13  N  2  X    0.000000   0.000000   0.000000   0.000000   0.000000
   14  N  2  Y    0.000000   0.000000   0.000000   0.000000   0.000000
   15  N  2  Z   -0.001108   0.000825   0.032037  -0.095839  -0.540018
   16  N  2  X    0.000000   0.000000   0.000000   0.000000   0.000000
   17  N  2  Y    0.000000   0.000000   0.000000   0.000000   0.000000
   18  N  2  Z    0.000457  -0.000012   0.041460  -0.020650  -0.175409

                      6          7          8          9         10
                    1.7249     1.7249     0.2733     0.2733     0.1022
                     B1         B2         B2         B1         A1  
    1  N  1  S    0.000000   0.000000   0.000000   0.000000  -0.060938
    2  N  1  S    0.000000   0.000000   0.000000   0.000000   0.164992
    3  N  1  S    0.000000   0.000000   0.000000   0.000000   0.237045
    4  N  1  X    0.510044   0.000000   0.000000  -0.648158   0.000000
    5  N  1  Y    0.000000   0.510044  -0.648158   0.000000   0.000000
    6  N  1  Z    0.000000   0.000000   0.000000   0.000000   0.768704
    7  N  1  X    0.222188   0.000000   0.000000  -0.173350   0.000000
    8  N  1  Y    0.000000   0.222188  -0.173350   0.000000   0.000000
    9  N  1  Z    0.000000   0.000000   0.000000   0.000000   0.135628
   10  N  2  S    0.000000   0.000000   0.000000   0.000000   0.060938
   11  N  2  S    0.000000   0.000000   0.000000   0.000000  -0.164992
   12  N  2  S    0.000000   0.000000   0.000000   0.000000  -0.237045
   13  N  2  X    0.510044   0.000000   0.000000   0.648158   0.000000
   14  N  2  Y    0.000000   0.510044   0.648158   0.000000   0.000000
   15  N  2  Z    0.000000   0.000000   0.000000   0.000000   0.768704
   16  N  2  X    0.222188   0.000000   0.000000   0.173350   0.000000
   17  N  2  Y    0.000000   0.222188   0.173350   0.000000   0.000000
   18  N  2  Z    0.000000   0.000000   0.000000   0.000000   0.135628

                     11         12         13         14         15
                    0.0129     0.0090     0.0090     0.0090     0.0050
                     A1         A1         B1         B2         A1  
    1  N  1  S   -0.091337  -0.075322   0.000000   0.000000   0.035722
    2  N  1  S    1.023381   0.974428   0.000000   0.000000  -0.523430
    3  N  1  S   -0.990020  -0.992347   0.000000   0.000000   0.200619
    4  N  1  X    0.000000   0.000000  -0.656812   0.000000   0.000000
    5  N  1  Y    0.000000   0.000000   0.000000  -0.656812   0.000000
    6  N  1  Z   -0.235243  -0.311541   0.000000   0.000000  -0.588579
    7  N  1  X    0.000000   0.000000   0.664919   0.000000   0.000000
    8  N  1  Y    0.000000   0.000000   0.000000   0.664919   0.000000
    9  N  1  Z    0.369661   0.354899   0.000000   0.000000   0.801978
   10  N  2  S   -0.091337   0.075322   0.000000   0.000000   0.035722
   11  N  2  S    1.023381  -0.974428   0.000000   0.000000  -0.523430
   12  N  2  S   -0.990020   0.992347   0.000000   0.000000   0.200619
   13  N  2  X    0.000000   0.000000  -0.656812   0.000000   0.000000
   14  N  2  Y    0.000000   0.000000   0.000000  -0.656812   0.000000
   15  N  2  Z    0.235243  -0.311541   0.000000   0.000000   0.588579
   16  N  2  X    0.000000   0.000000   0.664919   0.000000   0.000000
   17  N  2  Y    0.000000   0.000000   0.000000   0.664919   0.000000
   18  N  2  Z   -0.369661   0.354899   0.000000   0.000000  -0.801978

                     16         17         18
                    0.0028     0.0028     0.0011
                     B2         B1         A1  
    1  N  1  S    0.000000   0.000000  -0.004800
    2  N  1  S    0.000000   0.000000  -1.005370
    3  N  1  S    0.000000   0.000000   2.757650
    4  N  1  X    0.000000  -0.541530   0.000000
    5  N  1  Y   -0.541530   0.000000   0.000000
    6  N  1  Z    0.000000   0.000000  -0.206650
    7  N  1  X    0.000000   1.120272   0.000000
    8  N  1  Y    1.120272   0.000000   0.000000
    9  N  1  Z    0.000000   0.000000   1.891565
   10  N  2  S    0.000000   0.000000   0.004800
   11  N  2  S    0.000000   0.000000   1.005370
   12  N  2  S    0.000000   0.000000  -2.757650
   13  N  2  X    0.000000   0.541530   0.000000
   14  N  2  Y    0.541530   0.000000   0.000000
   15  N  2  Z    0.000000   0.000000  -0.206650
   16  N  2  X    0.000000  -1.120272   0.000000
   17  N  2  Y   -1.120272   0.000000   0.000000
   18  N  2  Z    0.000000   0.000000   1.891565
 ..... DONE WITH ONE PARTICLE DENSITY MATRIX .....
 CPU     0: STEP CPU TIME=     1.01 TOTAL CPU TIME=       71.6 (    1.2 MIN)
 TOTAL WALL CLOCK TIME=       90.0 SECONDS, CPU UTILIZATION IS  79.51%

     --------------------------------------------------------
     ALDET CI PROPERTIES...FOR THE WAVEFUNCTION OF STATE    1
               USING THE EXPECTATION VALUE DENSITY
     --------------------------------------------------------

          -----------------
          ENERGY COMPONENTS
          -----------------

         WAVEFUNCTION NORMALIZATION =       1.0000000000

                ONE ELECTRON ENERGY =    -179.4900489036
                TWO ELECTRON ENERGY =      54.3214072809
           NUCLEAR REPULSION ENERGY =      16.2060532580
                                      ------------------
                       TOTAL ENERGY =    -108.9625883647

 ELECTRON-ELECTRON POTENTIAL ENERGY =      54.3214072809
  NUCLEUS-ELECTRON POTENTIAL ENERGY =    -287.7347090629
   NUCLEUS-NUCLEUS POTENTIAL ENERGY =      16.2060532580
                                      ------------------
             TOTAL POTENTIAL ENERGY =    -217.2072485240
               TOTAL KINETIC ENERGY =     108.2446601593
                 VIRIAL RATIO (V/T) =       2.0066324584

          ---------------------------------------
          MULLIKEN AND LOWDIN POPULATION ANALYSES
          ---------------------------------------

               ----- POPULATIONS IN EACH AO -----
                             MULLIKEN      LOWDIN
              1  N  1  S      2.00005     1.99546
              2  N  1  S      0.99187     0.96019
              3  N  1  S      0.94750     0.85295
              4  N  1  X      0.72551     0.67224
              5  N  1  Y      0.72551     0.67224
              6  N  1  Z      0.86004     0.80069
              7  N  1  X      0.27950     0.33276
              8  N  1  Y      0.27950     0.33276
              9  N  1  Z      0.19053     0.38070
             10  N  2  S      2.00005     1.99546
             11  N  2  S      0.99187     0.96019
             12  N  2  S      0.94750     0.85295
             13  N  2  X      0.72551     0.67224
             14  N  2  Y      0.72551     0.67224
             15  N  2  Z      0.86004     0.80069
             16  N  2  X      0.27950     0.33276
             17  N  2  Y      0.27950     0.33276
             18  N  2  Z      0.19053     0.38070

          ----- MULLIKEN ATOMIC OVERLAP POPULATIONS -----
          (OFF-DIAGONAL ELEMENTS NEED TO BE MULTIPLIED BY 2)

             1           2

    1    6.7724769
    2    0.2275231   6.7724769

          TOTAL MULLIKEN AND LOWDIN ATOMIC POPULATIONS
       ATOM         MULL.POP.    CHARGE          LOW.POP.     CHARGE
    1 N             7.000000    0.000000         7.000000    0.000000
    2 N             7.000000    0.000000         7.000000    0.000000

          ---------------------
          ELECTROSTATIC MOMENTS
          ---------------------

 POINT   1           X           Y           Z (BOHR)    CHARGE
                 0.000000    0.000000    1.511781        0.00 (A.U.)
         DX          DY          DZ         /D/  (DEBYE)
     0.000000    0.000000   -0.000000    0.000000
 ...... END OF PROPERTY EVALUATION ......
 CPU     0: STEP CPU TIME=     0.00 TOTAL CPU TIME=       71.6 (    1.2 MIN)
 TOTAL WALL CLOCK TIME=       90.7 SECONDS, CPU UTILIZATION IS  78.96%
             119866892  WORDS OF DYNAMIC MEMORY USED
 EXECUTION OF GAMESS TERMINATED NORMALLY Thu Jan 17 17:50:45 2019
 DDI: 305760 bytes (0.3 MB / 0 MWords) used by master data server.

 ----------------------------------------
 CPU timing information for all processes
 ========================================
 0: 66.856 + 4.900 = 71.756
 1: 66.476 + 5.848 = 72.324
 2: 66.984 + 5.728 = 72.712
 3: 67.184 + 5.264 = 72.448
 4: 66.908 + 6.592 = 73.500
 5: 67.312 + 4.964 = 72.276
 6: 66.380 + 4.616 = 70.996
 7: 66.884 + 4.816 = 71.700
 8: 66.792 + 3.788 = 70.580
 9: 66.32 + 5.736 = 71.768
 10: 66.908 + 5.276 = 72.184
 11: 66.260 + 5.44 = 71.304
 12: 0.304 + 2.444 = 2.748
 13: 0.00 + 0.04 = 0.04
 14: 0.00 + 0.08 = 0.08
 15: 0.04 + 0.04 = 0.08
 16: 0.04 + 0.00 = 0.04
 17: 0.08 + 0.00 = 0.08
 18: 0.04 + 0.04 = 0.08
 19: 0.00 + 0.08 = 0.08
 20: 0.00 + 0.08 = 0.08
 21: 0.04 + 0.00 = 0.04
 22: 0.04 + 0.00 = 0.04
 23: 0.04 + 0.00 = 0.04
 ----------------------------------------
 ddikick.x: exited gracefully.
unset echo
----- accounting info -----
Files used on the master node localhost were:
-rw-rw-r-- 1 maho maho    13429 Jan 17 17:50 ./N2.SV/1.6/N2.SV.fullCI.1.6.gamess.dat
-rw------- 1 maho maho     1813 Jan 17 17:49 ./N2.SV/1.6/N2.SV.fullCI.1.6.gamess.F05
-rw-rw-r-- 1 maho maho   180016 Jan 17 17:49 ./N2.SV/1.6/N2.SV.fullCI.1.6.gamess.F08
-rw-rw-r-- 1 maho maho     1376 Jan 17 17:49 ./N2.SV/1.6/N2.SV.fullCI.1.6.gamess.F09
-rw-rw-r-- 1 maho maho  1865040 Jan 17 17:50 ./N2.SV/1.6/N2.SV.fullCI.1.6.gamess.F10
-rw-rw-r-- 1 maho maho 38216480 Jan 17 17:50 ./N2.SV/1.6/N2.SV.fullCI.1.6.gamess.F12
-rw------- 1 maho maho     1813 Jan 17 17:49 ./N2.SV/1.6/N2.SV.fullCI.1.6.gamess.inp
-rw-rw-r-- 1 maho maho    46615 Jan 17 17:50 ./N2.SV/1.6/N2.SV.fullCI.1.6.gamess.log
ls: No match.
ls: No match.
ls: No match.
Thu Jan 17 17:50:48 JST 2019
0.0u 0.0s 1:34.12 0.0% 0+0k 0+8io 0pf+0w
