----- GAMESS execution script 'rungms' -----
This job is running on host localhost
under operating system Linux at Thu Jan 17 19:41:55 JST 2019
Available scratch disk space (Kbyte units) at beginning of the job is
Filesystem     1K-blocks      Used Available Use% Mounted on
/dev/sda1      895286904 141750140 708035736  17% /
GAMESS temporary binary files will be written to .
GAMESS supplementary output files will be written to .
Copying input file N2.SV/6.0/N2.SV.fullCI.6.0.gamess.inp to your run's scratch directory...
cp N2.SV/6.0/N2.SV.fullCI.6.0.gamess.inp ./N2.SV/6.0/N2.SV.fullCI.6.0.gamess.F05
unset echo
/work/pubchem/pm6/pkg/gamess_intel/ddikick.x /work/pubchem/pm6/pkg/gamess_intel/gamess.00.x N2.SV/6.0/N2.SV.fullCI.6.0.gamess -ddi 12 12 localhost localhost localhost localhost localhost localhost localhost localhost localhost localhost localhost localhost -scr .

 Distributed Data Interface kickoff program.
 Initiating 12 compute processes on 12 nodes to run the following command:
 /work/pubchem/pm6/pkg/gamess_intel/gamess.00.x N2.SV/6.0/N2.SV.fullCI.6.0.gamess 

          ******************************************************
          *         GAMESS VERSION =  5 DEC 2014 (R1)          *
          *             FROM IOWA STATE UNIVERSITY             *
          * M.W.SCHMIDT, K.K.BALDRIDGE, J.A.BOATZ, S.T.ELBERT, *
          *   M.S.GORDON, J.H.JENSEN, S.KOSEKI, N.MATSUNAGA,   *
          *          K.A.NGUYEN, S.J.SU, T.L.WINDUS,           *
          *       TOGETHER WITH M.DUPUIS, J.A.MONTGOMERY       *
          *         J.COMPUT.CHEM.  14, 1347-1363(1993)        *
          **************** 64 BIT INTEL VERSION ****************

  SINCE 1993, STUDENTS AND POSTDOCS WORKING AT IOWA STATE UNIVERSITY
  AND ALSO IN THEIR VARIOUS JOBS AFTER LEAVING ISU HAVE MADE IMPORTANT
  CONTRIBUTIONS TO THE CODE:
     IVANA ADAMOVIC, CHRISTINE AIKENS, YURI ALEXEEV, POOJA ARORA,
     ANDREY ASADCHEV, ROB BELL, PRADIPTA BANDYOPADHYAY, JONATHAN BENTZ,
     BRETT BODE, KURT BRORSEN, CALEB CARLIN, GALINA CHABAN, WEI CHEN,
     CHEOL HO CHOI, PAUL DAY, ALBERT DEFUSCO, NUWAN DESILVA, TIM DUDLEY,
     DMITRI FEDOROV, GRAHAM FLETCHER, MARK FREITAG, KURT GLAESEMANN,
     DAN KEMP, GRANT MERRILL, NORIYUKI MINEZAWA, JONATHAN MULLIN,
     TAKESHI NAGATA, SEAN NEDD, HEATHER NETZLOFF, BOSILJKA NJEGIC, RYAN OLSON,
     MIKE PAK, SPENCER PRUITT, LUKE ROSKOP, JIM SHOEMAKER, LYUDMILA SLIPCHENKO,
     TONY SMITH, SAROM SOK, JIE SONG, TETSUYA TAKETSUGU, SIMON WEBB,
     PENG XU, SOOHAENG YOO, FEDERICO ZAHARIEV

  ADDITIONAL CODE HAS BEEN PROVIDED BY COLLABORATORS IN OTHER GROUPS:
     IOWA STATE UNIVERSITY:
          JOE IVANIC, AARON WEST, LAIMUTIS BYTAUTAS, KLAUS RUEDENBERG
     UNIVERSITY OF TOKYO: KIMIHIKO HIRAO, TAKAHITO NAKAJIMA,
          TAKAO TSUNEDA, MUNEAKI KAMIYA, SUSUMU YANAGISAWA,
          KIYOSHI YAGI, MAHITO CHIBA, SEIKEN TOKURA, NAOAKI KAWAKAMI
     UNIVERSITY OF AARHUS: FRANK JENSEN
     UNIVERSITY OF IOWA: VISVALDAS KAIRYS, HUI LI
     NATIONAL INST. OF STANDARDS AND TECHNOLOGY: WALT STEVENS, DAVID GARMER
     UNIVERSITY OF PISA: BENEDETTA MENNUCCI, JACOPO TOMASI
     UNIVERSITY OF MEMPHIS: HENRY KURTZ, PRAKASHAN KORAMBATH
     UNIVERSITY OF ALBERTA: TOBY ZENG, MARIUSZ KLOBUKOWSKI
     UNIVERSITY OF NEW ENGLAND: MARK SPACKMAN
     MIE UNIVERSITY: HIROAKI UMEDA
     NAT. INST. OF ADVANCED INDUSTRIAL SCIENCE AND TECHNOLOGY: KAZUO KITAURA
     MICHIGAN STATE UNIVERSITY:
          KAROL KOWALSKI, MARTA WLOCH, JEFFREY GOUR, JESSE LUTZ,
          WEI LI, PIOTR PIECUCH
     UNIVERSITY OF SILESIA: MONIKA MUSIAL, STANISLAW KUCHARSKI
     FACULTES UNIVERSITAIRES NOTRE-DAME DE LA PAIX:
          OLIVIER QUINET, BENOIT CHAMPAGNE
     UNIVERSITY OF CALIFORNIA - SANTA BARBARA: BERNARD KIRTMAN
     INSTITUTE FOR MOLECULAR SCIENCE:
          KAZUYA ISHIMURA, MICHIO KATOUDA, AND SHIGERU NAGASE
     UNIVERSITY OF NOTRE DAME: ANNA POMOGAEVA, DAN CHIPMAN
     KYUSHU UNIVERSITY:
          HARUYUKI NAKANO,
          FENG LONG GU, JACEK KORCHOWIEC, MARCIN MAKOWSKI, AND YURIKO AOKI,
          HIROTOSHI MORI AND EISAKU MIYOSHI
     PENNSYLVANIA STATE UNIVERSITY:
          TZVETELIN IORDANOV, CHET SWALINA, JONATHAN SKONE,
          SHARON HAMMES-SCHIFFER
     WASEDA UNIVERSITY:
          MASATO KOBAYASHI, TOMOKO AKAMA, TSUGUKI TOUMA,
          TAKESHI YOSHIKAWA, YASUHIRO IKABATA, HIROMI NAKAI
     NANJING UNIVERSITY: SHUHUA LI
     UNIVERSITY OF NEBRASKA:
          PEIFENG SU, DEJUN SI, NANDUN THELLAMUREGE, YALI WANG, HUI LI
     UNIVERSITY OF ZURICH: ROBERTO PEVERATI, KIM BALDRIDGE
     N. COPERNICUS UNIVERSITY AND JACKSON STATE UNIVERSITY:
          MARIA BARYSZ
     UNIVERSITY OF COPENHAGEN: CASPER STEINMANN
     TOKYO INSTITUTE OF TECHNOLOGY: HIROYA NAKATA
     NAGOYA UNIVERSITY: YOSHIO NISHIMOTO, STEPHAN IRLE


 PARALLEL VERSION RUNNING ON       12 PROCESSORS IN       12 NODES.

 EXECUTION OF GAMESS BEGUN Thu Jan 17 19:41:55 2019

            ECHO OF THE FIRST FEW INPUT CARDS -
 INPUT CARD> $CONTRL SCFTYP=RHF CITYP=ALDET $END                                            
 INPUT CARD> $GUESS GUESS=HUCKEL $END                                                       
 INPUT CARD> $SYSTEM MWORDS=300 $END                                                        
 INPUT CARD> $CIDET SZ=0 GROUP=C2V NCORE=2 NACT=16 NELS=10 NSTGSS=6 $END                    
 INPUT CARD> $DATA                                                                          
 INPUT CARD>N2...HF...Double-zeta basis                                                     
 INPUT CARD>Cnv   2                                                                         
 INPUT CARD>                                                                                
 INPUT CARD>N     7.0    0.0      0.0     0.0                                               
 INPUT CARD>S   7                                                                           
 INPUT CARD>  1   5909.0000000              0.0011900                                       
 INPUT CARD>  2    887.5000000              0.0090990                                       
 INPUT CARD>  3    204.7000000              0.0441450                                       
 INPUT CARD>  4     59.8400000              0.1504640                                       
 INPUT CARD>  5     20.0000000              0.3567410                                       
 INPUT CARD>  6      7.1930000              0.4465330                                       
 INPUT CARD>  7      2.6860000              0.1456030                                       
 INPUT CARD>S   2                                                                           
 INPUT CARD>  1      7.1930000             -0.1604050                                       
 INPUT CARD>  2      0.7000000              1.0582150                                       
 INPUT CARD>S   1                                                                           
 INPUT CARD>  1      0.2133000              1.0000000                                       
 INPUT CARD>P   4                                                                           
 INPUT CARD>  1     26.7900000              0.0182540                                       
 INPUT CARD>  2      5.9560000              0.1164610                                       
 INPUT CARD>  3      1.7070000              0.3901780                                       
 INPUT CARD>  4      0.5314000              0.6371020                                       
 INPUT CARD>P   1                                                                           
 INPUT CARD>  1      0.1654000              1.0000000                                       
 INPUT CARD>                                                                                
 INPUT CARD>N     7.0    0.0      0.0     6.0                                               
 INPUT CARD>S   7                                                                           
 INPUT CARD>  1   5909.0000000              0.0011900                                       
 INPUT CARD>  2    887.5000000              0.0090990                                       
 INPUT CARD>  3    204.7000000              0.0441450                                       
 INPUT CARD>  4     59.8400000              0.1504640                                       
 INPUT CARD>  5     20.0000000              0.3567410                                       
 INPUT CARD>  6      7.1930000              0.4465330                                       
 INPUT CARD>  7      2.6860000              0.1456030                                       
 INPUT CARD>S   2                                                                           
 INPUT CARD>  1      7.1930000             -0.1604050                                       
 INPUT CARD>  2      0.7000000              1.0582150                                       
 INPUT CARD>S   1                                                                           
 INPUT CARD>  1      0.2133000              1.0000000                                       
 INPUT CARD>P   4                                                                           
 INPUT CARD>  1     26.7900000              0.0182540                                       
 INPUT CARD>  2      5.9560000              0.1164610                                       
 INPUT CARD>  3      1.7070000              0.3901780                                       
 INPUT CARD>  4      0.5314000              0.6371020                                       
 INPUT CARD>P   1                                                                           
  300000000 WORDS OF MEMORY AVAILABLE


     RUN TITLE
     ---------
 N2...HF...Double-zeta basis                                                     

 THE POINT GROUP OF THE MOLECULE IS CNV     
 THE ORDER OF THE PRINCIPAL AXIS IS     2

 ATOM      ATOMIC                      COORDINATES (BOHR)
           CHARGE         X                   Y                   Z
 N           7.0     0.0000000000        0.0000000000        0.0000000000
 N           7.0     0.0000000000        0.0000000000       11.3383559263

          INTERNUCLEAR DISTANCES (ANGS.)
          ------------------------------

                1 N          2 N     

   1 N       0.0000000    6.0000000  
   2 N       6.0000000    0.0000000  

  * ... LESS THAN  3.000


     ATOMIC BASIS SET
     ----------------
 THE CONTRACTED PRIMITIVE FUNCTIONS HAVE BEEN UNNORMALIZED
 THE CONTRACTED BASIS FUNCTIONS ARE NOW NORMALIZED TO UNITY

  SHELL TYPE  PRIMITIVE        EXPONENT          CONTRACTION COEFFICIENT(S)

 N         

      1   S       1          5909.0000000    0.001189999548
      1   S       2           887.5000000    0.009098996542
      1   S       3           204.7000000    0.044144983225
      1   S       4            59.8400000    0.150463942825
      1   S       5            20.0000000    0.356740864442
      1   S       6             7.1930000    0.446532830321
      1   S       7             2.6860000    0.145602944672

      2   S       8             7.1930000   -0.160405033446
      2   S       9             0.7000000    1.058215220651

      3   S      10             0.2133000    1.000000000000

      4   P      11            26.7900000    0.018253998243
      4   P      12             5.9560000    0.116460988791
      4   P      13             1.7070000    0.390177962446
      4   P      14             0.5314000    0.637101938680

      5   P      15             0.1654000    1.000000000000

 N         

      6   S      16          5909.0000000    0.001189999548
      6   S      17           887.5000000    0.009098996542
      6   S      18           204.7000000    0.044144983225
      6   S      19            59.8400000    0.150463942825
      6   S      20            20.0000000    0.356740864442
      6   S      21             7.1930000    0.446532830321
      6   S      22             2.6860000    0.145602944672

      7   S      23             7.1930000   -0.160405033446
      7   S      24             0.7000000    1.058215220651

      8   S      25             0.2133000    1.000000000000

      9   P      26            26.7900000    0.018253998243
      9   P      27             5.9560000    0.116460988791
      9   P      28             1.7070000    0.390177962446
      9   P      29             0.5314000    0.637101938680

     10   P      30             0.1654000    1.000000000000

 TOTAL NUMBER OF BASIS SET SHELLS             =   10
 NUMBER OF CARTESIAN GAUSSIAN BASIS FUNCTIONS =   18
 NUMBER OF ELECTRONS                          =   14
 CHARGE OF MOLECULE                           =    0
 SPIN MULTIPLICITY                            =    1
 NUMBER OF OCCUPIED ORBITALS (ALPHA)          =    7
 NUMBER OF OCCUPIED ORBITALS (BETA )          =    7
 TOTAL NUMBER OF ATOMS                        =    2
 THE NUCLEAR REPULSION ENERGY IS        4.3216142021

 THIS MOLECULE IS RECOGNIZED AS BEING LINEAR,
 ORBITAL LZ DEGENERACY TOLERANCE ETOLLZ= 1.00E-06

     $CONTRL OPTIONS
     ---------------
 SCFTYP=RHF          RUNTYP=ENERGY       EXETYP=RUN     
 MPLEVL=       0     CITYP =ALDET        CCTYP =NONE         VBTYP =NONE    
 DFTTYP=NONE         TDDFT =NONE    
 MULT  =       1     ICHARG=       0     NZVAR =       0     COORD =UNIQUE  
 PP    =NONE         RELWFN=NONE         LOCAL =NONE         NUMGRD=       F
 ISPHER=      -1     NOSYM =       0     MAXIT =      30     UNITS =ANGS    
 PLTORB=       F     MOLPLT=       F     AIMPAC=       F     FRIEND=        
 NPRINT=       7     IREST =       0     GEOM  =INPUT   
 NORMF =       0     NORMP =       0     ITOL  =      20     ICUT  =       9
 INTTYP=BEST         GRDTYP=BEST         QMTTOL= 1.0E-06

     $SYSTEM OPTIONS
     ---------------
  REPLICATED MEMORY=   300000000 WORDS (ON EVERY NODE).
 DISTRIBUTED MEMDDI=           0 MILLION WORDS IN AGGREGATE,
 MEMDDI DISTRIBUTED OVER  12 PROCESSORS IS           0 WORDS/PROCESSOR.
 TOTAL MEMORY REQUESTED ON EACH PROCESSOR=   300000000 WORDS.
 TIMLIM=      525600.00 MINUTES, OR     365.0 DAYS.
 PARALL= T  BALTYP=  DLB     KDIAG=    0  COREFL= F
 MXSEQ2=     300 MXSEQ3=     150  mem10=         0

          ----------------
          PROPERTIES INPUT
          ----------------

     MOMENTS            FIELD           POTENTIAL          DENSITY
 IEMOM =       1   IEFLD =       0   IEPOT =       0   IEDEN =       0
 WHERE =COMASS     WHERE =NUCLEI     WHERE =NUCLEI     WHERE =NUCLEI  
 OUTPUT=BOTH       OUTPUT=BOTH       OUTPUT=BOTH       OUTPUT=BOTH    
 IEMINT=       0   IEFINT=       0                     IEDINT=       0
                                                       MORB  =       0
          EXTRAPOLATION IN EFFECT
          SOSCF IN EFFECT
 ORBITAL PRINTING OPTION: NPREO=     1    18     2     1

     -------------------------------
     INTEGRAL TRANSFORMATION OPTIONS
     -------------------------------
     NWORD  =            0
     CUTOFF = 1.0E-09     MPTRAN =       0
     DIRTRF =       F     AOINTS =DUP     

          ----------------------
          INTEGRAL INPUT OPTIONS
          ----------------------
 NOPK  =       1 NORDER=       0 SCHWRZ=       F

     ------------------------------------------
     THE POINT GROUP IS CNV, NAXIS= 2, ORDER= 4
     ------------------------------------------

     DIMENSIONS OF THE SYMMETRY SUBSPACES ARE
 A1  =   10     A2  =    0     B1  =    4     B2  =    4

 ..... DONE SETTING UP THE RUN .....
 CPU     0: STEP CPU TIME=     0.02 TOTAL CPU TIME=        0.0 (    0.0 MIN)
 TOTAL WALL CLOCK TIME=        0.0 SECONDS, CPU UTILIZATION IS  66.67%

          ********************
          1 ELECTRON INTEGRALS
          ********************
 ...... END OF ONE-ELECTRON INTEGRALS ......
 CPU     0: STEP CPU TIME=     0.00 TOTAL CPU TIME=        0.0 (    0.0 MIN)
 TOTAL WALL CLOCK TIME=        0.1 SECONDS, CPU UTILIZATION IS  33.33%

          -------------
          GUESS OPTIONS
          -------------
          GUESS =HUCKEL            NORB  =       0          NORDER=       0
          MIX   =       F          PRTMO =       F          PUNMO =       F
          TOLZ  = 1.0E-08          TOLE  = 1.0E-05
          SYMDEN=       F          PURIFY=       F

 INITIAL GUESS ORBITALS GENERATED BY HUCKEL   ROUTINE.
 HUCKEL GUESS REQUIRES      4352 WORDS.

 SYMMETRIES FOR INITIAL GUESS ORBITALS FOLLOW.   BOTH SET(S).
     7 ORBITALS ARE OCCUPIED (    2 CORE ORBITALS).
     3=A1       4=A1       5=A1       6=B1       7=B2       8=B1       9=B2  
    10=A1      11=A1      12=A1      13=A1      14=A1      15=B1      16=B1  
    17=B2  
 ...... END OF INITIAL ORBITAL SELECTION ......
 CPU     0: STEP CPU TIME=     0.00 TOTAL CPU TIME=        0.0 (    0.0 MIN)
 TOTAL WALL CLOCK TIME=        0.1 SECONDS, CPU UTILIZATION IS  33.33%

                    ----------------------
                    AO INTEGRAL TECHNOLOGY
                    ----------------------
     S,P,L SHELL ROTATED AXIS INTEGRALS, REPROGRAMMED BY
        KAZUYA ISHIMURA (IMS) AND JOSE SIERRA (SYNSTAR).
     S,P,D,L SHELL ROTATED AXIS INTEGRALS PROGRAMMED BY
        KAZUYA ISHIMURA (INSTITUTE FOR MOLECULAR SCIENCE).
     S,P,D,F,G SHELL TO TOTAL QUARTET ANGULAR MOMENTUM SUM 5,
        ERIC PROGRAM BY GRAHAM FLETCHER (ELORET AND NASA ADVANCED
        SUPERCOMPUTING DIVISION, AMES RESEARCH CENTER).
     S,P,D,F,G,L SHELL GENERAL RYS QUADRATURE PROGRAMMED BY
        MICHEL DUPUIS (PACIFIC NORTHWEST NATIONAL LABORATORY).

          --------------------
          2 ELECTRON INTEGRALS
          --------------------

 THE -PK- OPTION IS OFF, THE INTEGRALS ARE NOT IN SUPERMATRIX FORM.
 STORING   15000 INTEGRALS/RECORD ON DISK, USING 12 BYTES/INTEGRAL.
 TWO ELECTRON INTEGRAL EVALUATION REQUIRES   89411 WORDS OF MEMORY.
 II,JST,KST,LST =  1  1  1  1 NREC =         1 INTLOC =    1
 II,JST,KST,LST =  2  1  1  1 NREC =         1 INTLOC =    2
 II,JST,KST,LST =  3  1  1  1 NREC =         1 INTLOC =    7
 II,JST,KST,LST =  4  1  1  1 NREC =         1 INTLOC =   16
 II,JST,KST,LST =  5  1  1  1 NREC =         1 INTLOC =   16
 II,JST,KST,LST =  6  1  1  1 NREC =         1 INTLOC =  103
 II,JST,KST,LST =  7  1  1  1 NREC =         1 INTLOC =  103
 II,JST,KST,LST =  8  1  1  1 NREC =         1 INTLOC =  121
 II,JST,KST,LST =  9  1  1  1 NREC =         1 INTLOC =  174
 II,JST,KST,LST = 10  1  1  1 NREC =         1 INTLOC =  359
 TOTAL NUMBER OF NONZERO TWO-ELECTRON INTEGRALS =                1914
         12 INTEGRAL RECORDS WERE STORED ON DISK FILE  8.
  ...... END OF TWO-ELECTRON INTEGRALS .....
 CPU     0: STEP CPU TIME=     0.01 TOTAL CPU TIME=        0.0 (    0.0 MIN)
 TOTAL WALL CLOCK TIME=        0.1 SECONDS, CPU UTILIZATION IS  42.86%

          --------------------------
                 RHF SCF CALCULATION
          --------------------------

     NUCLEAR ENERGY =         4.3216142021
     MAXIT =   30     NPUNCH=    2
     EXTRAP=T  DAMP=F  SHIFT=F  RSTRCT=F  DIIS=F  DEM=F  SOSCF=T
     DENSITY MATRIX CONV=  1.00E-06
     SOSCF WILL OPTIMIZE      77 ORBITAL ROTATIONS, SOGTOL=   0.250
     MEMORY REQUIRED FOR RHF ITERS=     32828 WORDS.

 ITER EX DEM     TOTAL ENERGY        E CHANGE  DENSITY CHANGE     ORB. GRAD
   1  0  0     -107.6241918652  -107.6241918652   0.256118512   0.000000000
          ---------------START SECOND ORDER SCF---------------
   2  1  0     -107.7956044085    -0.1714125433   0.113019805   0.060574829
   3  2  0     -107.8113762047    -0.0157717962   0.026157283   0.024961256
   4  3  0     -107.8147469565    -0.0033707517   0.002443723   0.001154042
   5  4  0     -107.8147548847    -0.0000079282   0.000808856   0.000334651
   6  5  0     -107.8147552304    -0.0000003457   0.000013301   0.000007243
   7  6  0     -107.8147552306    -0.0000000002   0.000000840   0.000000445
   8  7  0     -107.8147552306    -0.0000000000   0.000000226   0.000000095

          -----------------
          DENSITY CONVERGED
          -----------------
     TIME TO FORM FOCK OPERATORS=       0.0 SECONDS (       0.0 SEC/ITER)
     TIME TO SOLVE SCF EQUATIONS=       0.0 SECONDS (       0.0 SEC/ITER)

 FINAL RHF ENERGY IS     -107.8147552306 AFTER   8 ITERATIONS

 LZ VALUE ANALYSIS FOR THE MOS
 ----------------------------------------
 MO     1 (    1) HAS LZ(WEIGHT)= 0.00(100.0%) 
 MO     2 (    2) HAS LZ(WEIGHT)= 0.00(100.0%) 
 MO     3 (    3) HAS LZ(WEIGHT)= 0.00(100.0%) 
 MO     4 (    4) HAS LZ(WEIGHT)= 0.00(100.0%) 
 MO     5 (    5) HAS LZ(WEIGHT)= 0.00(100.0%) 
 MO     6 (    6) HAS LZ(WEIGHT)=-1.00( 50.0%)  1.00( 50.0%) 
 MO     7 (    6) HAS LZ(WEIGHT)=-1.00( 50.0%)  1.00( 50.0%) 
 MO     8 (    7) HAS LZ(WEIGHT)=-1.00( 50.0%)  1.00( 50.0%) 
 MO     9 (    7) HAS LZ(WEIGHT)=-1.00( 50.0%)  1.00( 50.0%) 
 MO    10 (    8) HAS LZ(WEIGHT)= 0.00(100.0%) 
 MO    11 (    9) HAS LZ(WEIGHT)= 0.00(100.0%) 
 MO    12 (   10) HAS LZ(WEIGHT)=-1.00( 50.0%)  1.00( 50.0%) 
 MO    13 (   10) HAS LZ(WEIGHT)=-1.00( 50.0%)  1.00( 50.0%) 
 MO    14 (   11) HAS LZ(WEIGHT)=-1.00( 50.0%)  1.00( 50.0%) 
 MO    15 (   11) HAS LZ(WEIGHT)=-1.00( 50.0%)  1.00( 50.0%) 
 MO    16 (   12) HAS LZ(WEIGHT)= 0.00(100.0%) 
 MO    17 (   13) HAS LZ(WEIGHT)= 0.00(100.0%) 
 MO    18 (   14) HAS LZ(WEIGHT)= 0.00(100.0%) 

          ------------
          EIGENVECTORS
          ------------

                      1          2          3          4          5
                  -15.8117   -15.8117    -1.0236    -1.0218    -0.2943
                     A1         A1         A1         A1         A1  
    1  N  1  S    0.706963   0.706970  -0.173331  -0.173386  -0.000866
    2  N  1  S   -0.000077  -0.000075   0.408946   0.409708   0.004526
    3  N  1  S    0.000888   0.000878   0.359670   0.358907  -0.001645
    4  N  1  X    0.000000   0.000000   0.000000   0.000000   0.000000
    5  N  1  Y    0.000000   0.000000   0.000000   0.000000   0.000000
    6  N  1  Z    0.000033   0.000017   0.001699  -0.002611  -0.502515
    7  N  1  X    0.000000   0.000000   0.000000   0.000000   0.000000
    8  N  1  Y    0.000000   0.000000   0.000000   0.000000   0.000000
    9  N  1  Z   -0.000005  -0.000017   0.001309  -0.001556  -0.298590
   10  N  2  S    0.706969  -0.706964  -0.173331   0.173386  -0.000866
   11  N  2  S   -0.000077   0.000075   0.408946  -0.409708   0.004526
   12  N  2  S    0.000888  -0.000878   0.359670  -0.358907  -0.001645
   13  N  2  X    0.000000   0.000000   0.000000   0.000000   0.000000
   14  N  2  Y    0.000000   0.000000   0.000000   0.000000   0.000000
   15  N  2  Z   -0.000033   0.000017  -0.001699  -0.002611   0.502515
   16  N  2  X    0.000000   0.000000   0.000000   0.000000   0.000000
   17  N  2  Y    0.000000   0.000000   0.000000   0.000000   0.000000
   18  N  2  Z    0.000005  -0.000017  -0.001309  -0.001556   0.298590

                      6          7          8          9         10
                   -0.2931    -0.2931    -0.2057    -0.2057    -0.2040
                     B2         B1         B2         B1         A1  
    1  N  1  S    0.000000   0.000000   0.000000   0.000000  -0.001047
    2  N  1  S    0.000000   0.000000   0.000000   0.000000   0.003857
    3  N  1  S    0.000000   0.000000   0.000000   0.000000   0.000154
    4  N  1  X    0.000000   0.503488   0.000000   0.503214   0.000000
    5  N  1  Y    0.503488   0.000000   0.503214   0.000000   0.000000
    6  N  1  Z    0.000000   0.000000   0.000000   0.000000   0.503703
    7  N  1  X    0.000000   0.297496   0.000000   0.297822   0.000000
    8  N  1  Y    0.297496   0.000000   0.297822   0.000000   0.000000
    9  N  1  Z    0.000000   0.000000   0.000000   0.000000   0.297272
   10  N  2  S    0.000000   0.000000   0.000000   0.000000   0.001047
   11  N  2  S    0.000000   0.000000   0.000000   0.000000  -0.003857
   12  N  2  S    0.000000   0.000000   0.000000   0.000000  -0.000154
   13  N  2  X    0.000000   0.503488   0.000000  -0.503214   0.000000
   14  N  2  Y    0.503488   0.000000  -0.503214   0.000000   0.000000
   15  N  2  Z    0.000000   0.000000   0.000000   0.000000   0.503703
   16  N  2  X    0.000000   0.297496   0.000000  -0.297822   0.000000
   17  N  2  Y    0.297496   0.000000  -0.297822   0.000000   0.000000
   18  N  2  Z    0.000000   0.000000   0.000000   0.000000   0.297272

                     11         12         13         14         15
                    0.6441     0.6450     0.6450     0.6451     0.6451
                     A1         B1         B2         B2         B1  
    1  N  1  S   -0.000287   0.000000   0.000000   0.000000   0.000000
    2  N  1  S    0.002848   0.000000   0.000000   0.000000   0.000000
    3  N  1  S   -0.002621   0.000000   0.000000   0.000000   0.000000
    4  N  1  X    0.000000  -0.662690   0.000000   0.000000  -0.662908
    5  N  1  Y    0.000000   0.000000  -0.662690  -0.662908   0.000000
    6  N  1  Z    0.663333   0.000000   0.000000   0.000000   0.000000
    7  N  1  X    0.000000   0.777262   0.000000   0.000000   0.777168
    8  N  1  Y    0.000000   0.000000   0.777262   0.777168   0.000000
    9  N  1  Z   -0.776551   0.000000   0.000000   0.000000   0.000000
   10  N  2  S   -0.000287   0.000000   0.000000   0.000000   0.000000
   11  N  2  S    0.002848   0.000000   0.000000   0.000000   0.000000
   12  N  2  S   -0.002621   0.000000   0.000000   0.000000   0.000000
   13  N  2  X    0.000000  -0.662690   0.000000   0.000000   0.662908
   14  N  2  Y    0.000000   0.000000  -0.662690   0.662908   0.000000
   15  N  2  Z   -0.663333   0.000000   0.000000   0.000000   0.000000
   16  N  2  X    0.000000   0.777263   0.000000   0.000000  -0.777168
   17  N  2  Y    0.000000   0.000000   0.777263  -0.777168   0.000000
   18  N  2  Z    0.776551   0.000000   0.000000   0.000000   0.000000

                     16         17         18
                    0.6463     0.9081     0.9091
                     A1         A1         A1  
    1  N  1  S    0.000050  -0.091255  -0.091141
    2  N  1  S   -0.000468   1.110452   1.110179
    3  N  1  S    0.000489  -1.103937  -1.104193
    4  N  1  X    0.000000   0.000000   0.000000
    5  N  1  Y    0.000000   0.000000   0.000000
    6  N  1  Z   -0.662623  -0.000301  -0.001043
    7  N  1  X    0.000000   0.000000   0.000000
    8  N  1  Y    0.000000   0.000000   0.000000
    9  N  1  Z    0.777663   0.002770  -0.000174
   10  N  2  S   -0.000050  -0.091255   0.091141
   11  N  2  S    0.000468   1.110452  -1.110179
   12  N  2  S   -0.000489  -1.103937   1.104193
   13  N  2  X    0.000000   0.000000   0.000000
   14  N  2  Y    0.000000   0.000000   0.000000
   15  N  2  Z   -0.662623   0.000301  -0.001043
   16  N  2  X    0.000000   0.000000   0.000000
   17  N  2  Y    0.000000   0.000000   0.000000
   18  N  2  Z    0.777663  -0.002770  -0.000174
 ...... END OF RHF CALCULATION ......
 CPU     0: STEP CPU TIME=     0.01 TOTAL CPU TIME=        0.0 (    0.0 MIN)
 TOTAL WALL CLOCK TIME=        0.1 SECONDS, CPU UTILIZATION IS  50.00%

     ----------------------------------------------------------------
     PROPERTY VALUES FOR THE RHF   SELF-CONSISTENT FIELD WAVEFUNCTION
     ----------------------------------------------------------------

          -----------------
          ENERGY COMPONENTS
          -----------------

         WAVEFUNCTION NORMALIZATION =       1.0000000000

                ONE ELECTRON ENERGY =    -155.1740866565
                TWO ELECTRON ENERGY =      43.0377172238
           NUCLEAR REPULSION ENERGY =       4.3216142021
                                      ------------------
                       TOTAL ENERGY =    -107.8147552306

 ELECTRON-ELECTRON POTENTIAL ENERGY =      43.0377172238
  NUCLEUS-ELECTRON POTENTIAL ENERGY =    -262.7435465405
   NUCLEUS-NUCLEUS POTENTIAL ENERGY =       4.3216142021
                                      ------------------
             TOTAL POTENTIAL ENERGY =    -215.3842151145
               TOTAL KINETIC ENERGY =     107.5694598839
                 VIRIAL RATIO (V/T) =       2.0022803438

  ...... PI ENERGY ANALYSIS ......

 ENERGY ANALYSIS:
            FOCK ENERGY=    -69.0986515353
          BARE H ENERGY=   -155.1740866565
     ELECTRONIC ENERGY =   -112.1363690959
         KINETIC ENERGY=    107.5694598839
          N-N REPULSION=      4.3216142021
           TOTAL ENERGY=   -107.8147548938
        SIGMA PART(1+2)=   -101.1869583965
               (K,V1,2)=    101.1311746372   -235.5787796636     33.2606466299
           PI PART(1+2)=    -10.9494106994
               (K,V1,2)=      6.4382852468    -27.1647668769      9.7770709307
  SIGMA SKELETON, ERROR=    -96.8653441944      0.0000000000
             MIXED PART= 0.00000E+00 0.00000E+00 0.00000E+00 0.00000E+00
 ...... END OF PI ENERGY ANALYSIS ......

          ---------------------------------------
          MULLIKEN AND LOWDIN POPULATION ANALYSES
          ---------------------------------------

               ----- POPULATIONS IN EACH AO -----
                             MULLIKEN      LOWDIN
              1  N  1  S      2.00012     1.99713
              2  N  1  S      1.06192     1.03309
              3  N  1  S      0.93795     0.96977
              4  N  1  X      0.66499     0.64018
              5  N  1  Y      0.66499     0.64018
              6  N  1  Z      0.66334     0.63876
              7  N  1  X      0.33501     0.35982
              8  N  1  Y      0.33501     0.35982
              9  N  1  Z      0.33668     0.36126
             10  N  2  S      2.00012     1.99713
             11  N  2  S      1.06192     1.03309
             12  N  2  S      0.93795     0.96977
             13  N  2  X      0.66499     0.64018
             14  N  2  Y      0.66499     0.64018
             15  N  2  Z      0.66334     0.63876
             16  N  2  X      0.33501     0.35982
             17  N  2  Y      0.33501     0.35982
             18  N  2  Z      0.33668     0.36126

          ----- MULLIKEN ATOMIC OVERLAP POPULATIONS -----
          (OFF-DIAGONAL ELEMENTS NEED TO BE MULTIPLIED BY 2)

             1           2

    1    6.9999033
    2    0.0000967   6.9999033

          TOTAL MULLIKEN AND LOWDIN ATOMIC POPULATIONS
       ATOM         MULL.POP.    CHARGE          LOW.POP.     CHARGE
    1 N             7.000000    0.000000         7.000000    0.000000
    2 N             7.000000   -0.000000         7.000000   -0.000000

          ---------------------
          ELECTROSTATIC MOMENTS
          ---------------------

 POINT   1           X           Y           Z (BOHR)    CHARGE
                 0.000000    0.000000    5.669178       -0.00 (A.U.)
         DX          DY          DZ         /D/  (DEBYE)
     0.000000    0.000000   -0.000000    0.000000
 ...... END OF PROPERTY EVALUATION ......
 CPU     0: STEP CPU TIME=     0.00 TOTAL CPU TIME=        0.0 (    0.0 MIN)
 TOTAL WALL CLOCK TIME=        0.1 SECONDS, CPU UTILIZATION IS  33.33%

 DETERMINANT CI OPTIONS   NRNFG   NPFLG
 INTEGRAL TRANSFORMATION    1       0
 DIAGONALIZE HAMILTONIAN    1       0
 FORM 1E- DENSITY MATRIX    1       0
 FORM 2E- DENSITY MATRIX    0       0

     --------------------------------------------------
          AMES LABORATORY DETERMINANTAL FULL CI
     PROGRAM WRITTEN BY JOE IVANIC AND KLAUS RUEDENBERG
     --------------------------------------------------

 THE POINT GROUP                  =   C2V     
 THE STATE SYMMETRY               =   A1      
 NUMBER OF CORE ORBITALS          =    2
 NUMBER OF ACTIVE ORBITALS        =   16
 NUMBER OF ALPHA ELECTRONS        =    7 (   5 ACTIVE)
 NUMBER OF BETA ELECTRONS         =    7 (   5 ACTIVE)
 NUMBER OF OCCUPIED ORBITALS      =   18
 NUMBER OF CI STATES REQUESTED    =    1
 NUMBER OF CI STARTING VECTORS    =    6
 MAX. NO. OF CI EXPANSION VECTORS =   12
 SIZE OF INITIAL CI GUESS MATRIX  =  300
 MAX. NO. OF CI ITERS/STATE       =  100
 CI DIAGONALIZATION CRITERION     = 1.00E-06
 CI PROPERTIES WILL BE FOUND FOR ROOT NUMBER   1
 1E- DENSITY MATRIX OPTIONS ARE 1

 CORRELATION ENERGY ANALYSIS      =    F

 SYMMETRIES FOR THE   2 CORE,  16 ACTIVE ARE

     CORE= A1    A1  

   ACTIVE= A1    A1    A1    B2    B1    B2    B1    A1    A1    B1  
           B2    B2    B1    A1    A1    A1  

     --------------------------------------------
     PARTIAL TWO ELECTRON INTEGRAL TRANSFORMATION
     --------------------------------------------

 NUMBER OF CORE MOLECULAR ORBITALS     =    2
 NUMBER OF OCCUPIED MOLECULAR ORBITALS =   18
 TOTAL NUMBER OF MOLECULAR ORBITALS    =   18
 TOTAL NUMBER OF ATOMIC ORBITALS       =   18
 THRESHOLD FOR KEEPING TRANSFORMED 2E- INTEGRALS = 1.000E-09

 -------------------------------     ------------------------------
 DISTRIBUTED DATA TRANSFORMATION     PROGRAM WRITTEN BY G. FLETCHER
 -------------------------------     ------------------------------

 THE DISTRIBUTED MEMORY REQUIRED FOR THIS STEP IS MEMDDI=         1 MWORDS
 CREATING DISTRIBUTED STORAGE FOR [OCC OCC|OCC OCC] INTEGRALS
 DDI: Creating Array [0] - 171 x 171 = 29241 words.
 CREATING WORKSPACE OF SIZE VVOO
 DDI: Creating Array [1] - 171 x 171 = 29241 words.
 FOR   12 PROCESSORS, THE REPLICATED MEMORY NEEDED IS       58507 WORDS.

      DIRECT 4-INDEX TRANSFORMATION 
      SCHWARZ INEQUALITY TEST SKIPPED          0 INTEGRAL BLOCKS
 ----- FROZEN CORE ENERGY =       -91.5808389642
 ... END OF INTEGRAL TRANSFORMATION ...
 CPU     0: STEP CPU TIME=     0.00 TOTAL CPU TIME=        0.0 (    0.0 MIN)
 TOTAL WALL CLOCK TIME=        0.2 SECONDS, CPU UTILIZATION IS  25.00%

     --------------------------------------------------
          AMES LABORATORY DETERMINANTAL FULL CI
     PROGRAM WRITTEN BY JOE IVANIC AND KLAUS RUEDENBERG
     --------------------------------------------------

 THE NUMBER OF DETERMINANTS HAVING SPACE SYMMETRY A1 
 IN POINT GROUP C2V  WITH SZ=  0.0 IS        4777056
 THE DETERMINANT FULL CI REQUIRES       119865995 WORDS
 INITIAL CI VECTOR GUESS TIME  :          2.1
 INITIAL FULL CI ITERATION TIME:          5.7

 ITERATION      ENERGY           GRADIENT
     0     -108.7362051474     0.46715184
     1     -108.8413168506     0.19255283
     2     -108.8547283689     0.07183629
     3     -108.8564153722     0.02877263
     4     -108.8566663239     0.01019765
     5     -108.8566948942     0.00338137
     6     -108.8566986825     0.00161214
     7     -108.8566996099     0.00101400
     8     -108.8567001743     0.00084246
     9     -108.8567003470     0.00049192
    10     -108.8567004027     0.00023627
    11     -108.8567004150     0.00010731
    12     -108.8567004166     0.00005523
    13     -108.8567004170     0.00003552
    14     -108.8567004173     0.00001891
    15     -108.8567004174     0.00001069
    16     -108.8567004175     0.00000595
    17     -108.8567004175     0.00000278
    18     -108.8567004175     0.00000134
    19     -108.8567004175     0.00000092

 CONVERGED STATE    1 ENERGY=     -108.8567004175 IN   19 ITERS

 ALL STATES CONVERGED.

 ALDET ERROR.  THIS RUN FOUND NSTATE=   1 ROOTS,
 BUT FEWER OF THESE THAN IROOT=   1 HAVE THE DESIRED SPIN S= 0.00
 PLEASE INCREASE -NSTATE- TO CONTINUE

 ALDET ERROR.  THIS RUN FOUND NSTATE=   1 ROOTS,
 BUT FEWER OF THESE THAN IROOT=   1 HAVE THE DESIRED SPIN S= 0.00
 PLEASE INCREASE -NSTATE- TO CONTINUE

 ALDET ERROR.  THIS RUN FOUND NSTATE=   1 ROOTS,
 BUT FEWER OF THESE THAN IROOT=   1 HAVE THE DESIRED SPIN S= 0.00
 PLEASE INCREASE -NSTATE- TO CONTINUE
 EXECUTION OF GAMESS TERMINATED -ABNORMALLY- AT Thu Jan 17 19:43:07 2019
             119866889  WORDS OF DYNAMIC MEMORY USED

 ALDET ERROR.  THIS RUN FOUND NSTATE=   1 ROOTS,
 BUT FEWER OF THESE THAN IROOT=   1 HAVE THE DESIRED SPIN S= 0.00
 PLEASE INCREASE -NSTATE- TO CONTINUE

 ALDET ERROR.  THIS RUN FOUND NSTATE=   1 ROOTS,
 BUT FEWER OF THESE THAN IROOT=   1 HAVE THE DESIRED SPIN S= 0.00
 PLEASE INCREASE -NSTATE- TO CONTINUE

 ALDET ERROR.  THIS RUN FOUND NSTATE=   1 ROOTS,
 BUT FEWER OF THESE THAN IROOT=   1 HAVE THE DESIRED SPIN S= 0.00
 PLEASE INCREASE -NSTATE- TO CONTINUE

 ALDET ERROR.  THIS RUN FOUND NSTATE=   1 ROOTS,
 BUT FEWER OF THESE THAN IROOT=   1 HAVE THE DESIRED SPIN S= 0.00
 PLEASE INCREASE -NSTATE- TO CONTINUE

 ALDET ERROR.  THIS RUN FOUND NSTATE=   1 ROOTS,
 BUT FEWER OF THESE THAN IROOT=   1 HAVE THE DESIRED SPIN S= 0.00
 PLEASE INCREASE -NSTATE- TO CONTINUE

 ALDET ERROR.  THIS RUN FOUND NSTATE=   1 ROOTS,
 BUT FEWER OF THESE THAN IROOT=   1 HAVE THE DESIRED SPIN S= 0.00
 PLEASE INCREASE -NSTATE- TO CONTINUE

 ALDET ERROR.  THIS RUN FOUND NSTATE=   1 ROOTS,
 BUT FEWER OF THESE THAN IROOT=   1 HAVE THE DESIRED SPIN S= 0.00
 PLEASE INCREASE -NSTATE- TO CONTINUE
 CPU     0: STEP CPU TIME=    57.46 TOTAL CPU TIME=       57.5 (    1.0 MIN)
 TOTAL WALL CLOCK TIME=       72.1 SECONDS, CPU UTILIZATION IS  79.81%

 ALDET ERROR.  THIS RUN FOUND NSTATE=   1 ROOTS,
 BUT FEWER OF THESE THAN IROOT=   1 HAVE THE DESIRED SPIN S= 0.00
 PLEASE INCREASE -NSTATE- TO CONTINUE

 ALDET ERROR.  THIS RUN FOUND NSTATE=   1 ROOTS,
 BUT FEWER OF THESE THAN IROOT=   1 HAVE THE DESIRED SPIN S= 0.00
 PLEASE INCREASE -NSTATE- TO CONTINUE
 DDI Process 0: error code 911
 ddikick.x: application process 0 quit unexpectedly.
 ddikick.x: Fatal error detected.
 The error is most likely to be in the application, so check for
 input errors, disk space, memory needs, application bugs, etc.
 ddikick.x will now clean up all processes, and exit...
 DDI Process 1: terminated upon request.
 DDI Process 2: terminated upon request.
 DDI Process 3: terminated upon request.
 DDI Process 4: terminated upon request.
 DDI Process 6: terminated upon request.
 DDI Process 7: terminated upon request.
 DDI Process 8: terminated upon request.
 DDI Process 10: terminated upon request.
 DDI Process 9: terminated upon request.
 DDI Process 5: terminated upon request.
 DDI Process 11: terminated upon request.
 DDI Process 13: terminated upon request.
 DDI Process 16: terminated upon request.
 DDI Process 15: terminated upon request.
 DDI Process 17: terminated upon request.
 DDI Process 14: terminated upon request.
 DDI Process 19: terminated upon request.
 DDI Process 18: terminated upon request.
 DDI Process 12: terminated upon request.
 DDI Process 20: terminated upon request.
 DDI Process 21: terminated upon request.
 DDI Process 22: terminated upon request.
 DDI Process 23: terminated upon request.
 ddikick.x: Sending kill signal to DDI processes.
 ddikick.x: Execution terminated due to error(s).
unset echo
----- accounting info -----
Files used on the master node localhost were:
-rw-rw-r-- 1 maho maho    7502 Jan 17 19:41 ./N2.SV/6.0/N2.SV.fullCI.6.0.gamess.dat
-rw------- 1 maho maho    1813 Jan 17 19:41 ./N2.SV/6.0/N2.SV.fullCI.6.0.gamess.F05
-rw-rw-r-- 1 maho maho  180016 Jan 17 19:41 ./N2.SV/6.0/N2.SV.fullCI.6.0.gamess.F08
-rw-rw-r-- 1 maho maho    1376 Jan 17 19:41 ./N2.SV/6.0/N2.SV.fullCI.6.0.gamess.F09
-rw-rw-r-- 1 maho maho 1668720 Jan 17 19:41 ./N2.SV/6.0/N2.SV.fullCI.6.0.gamess.F10
-rw-rw-r-- 1 maho maho       0 Jan 17 19:41 ./N2.SV/6.0/N2.SV.fullCI.6.0.gamess.F12
-rw------- 1 maho maho    1813 Jan 17 19:41 ./N2.SV/6.0/N2.SV.fullCI.6.0.gamess.inp
-rw-rw-r-- 1 maho maho   38436 Jan 17 19:43 ./N2.SV/6.0/N2.SV.fullCI.6.0.gamess.log
ls: No match.
ls: No match.
ls: No match.
Thu Jan 17 19:43:09 JST 2019
0.0u 0.0s 1:14.26 0.0% 0+0k 0+8io 0pf+0w
