----- GAMESS execution script 'rungms' -----
This job is running on host localhost
under operating system Linux at Thu Jan 17 18:45:19 JST 2019
Available scratch disk space (Kbyte units) at beginning of the job is
Filesystem     1K-blocks      Used Available Use% Mounted on
/dev/sda1      895286904 141746224 708039652  17% /
GAMESS temporary binary files will be written to .
GAMESS supplementary output files will be written to .
Copying input file N2.SV/3.8/N2.SV.fullCI.3.8.gamess.inp to your run's scratch directory...
cp N2.SV/3.8/N2.SV.fullCI.3.8.gamess.inp ./N2.SV/3.8/N2.SV.fullCI.3.8.gamess.F05
unset echo
/work/pubchem/pm6/pkg/gamess_intel/ddikick.x /work/pubchem/pm6/pkg/gamess_intel/gamess.00.x N2.SV/3.8/N2.SV.fullCI.3.8.gamess -ddi 12 12 localhost localhost localhost localhost localhost localhost localhost localhost localhost localhost localhost localhost -scr .

 Distributed Data Interface kickoff program.
 Initiating 12 compute processes on 12 nodes to run the following command:
 /work/pubchem/pm6/pkg/gamess_intel/gamess.00.x N2.SV/3.8/N2.SV.fullCI.3.8.gamess 

          ******************************************************
          *         GAMESS VERSION =  5 DEC 2014 (R1)          *
          *             FROM IOWA STATE UNIVERSITY             *
          * M.W.SCHMIDT, K.K.BALDRIDGE, J.A.BOATZ, S.T.ELBERT, *
          *   M.S.GORDON, J.H.JENSEN, S.KOSEKI, N.MATSUNAGA,   *
          *          K.A.NGUYEN, S.J.SU, T.L.WINDUS,           *
          *       TOGETHER WITH M.DUPUIS, J.A.MONTGOMERY       *
          *         J.COMPUT.CHEM.  14, 1347-1363(1993)        *
          **************** 64 BIT INTEL VERSION ****************

  SINCE 1993, STUDENTS AND POSTDOCS WORKING AT IOWA STATE UNIVERSITY
  AND ALSO IN THEIR VARIOUS JOBS AFTER LEAVING ISU HAVE MADE IMPORTANT
  CONTRIBUTIONS TO THE CODE:
     IVANA ADAMOVIC, CHRISTINE AIKENS, YURI ALEXEEV, POOJA ARORA,
     ANDREY ASADCHEV, ROB BELL, PRADIPTA BANDYOPADHYAY, JONATHAN BENTZ,
     BRETT BODE, KURT BRORSEN, CALEB CARLIN, GALINA CHABAN, WEI CHEN,
     CHEOL HO CHOI, PAUL DAY, ALBERT DEFUSCO, NUWAN DESILVA, TIM DUDLEY,
     DMITRI FEDOROV, GRAHAM FLETCHER, MARK FREITAG, KURT GLAESEMANN,
     DAN KEMP, GRANT MERRILL, NORIYUKI MINEZAWA, JONATHAN MULLIN,
     TAKESHI NAGATA, SEAN NEDD, HEATHER NETZLOFF, BOSILJKA NJEGIC, RYAN OLSON,
     MIKE PAK, SPENCER PRUITT, LUKE ROSKOP, JIM SHOEMAKER, LYUDMILA SLIPCHENKO,
     TONY SMITH, SAROM SOK, JIE SONG, TETSUYA TAKETSUGU, SIMON WEBB,
     PENG XU, SOOHAENG YOO, FEDERICO ZAHARIEV

  ADDITIONAL CODE HAS BEEN PROVIDED BY COLLABORATORS IN OTHER GROUPS:
     IOWA STATE UNIVERSITY:
          JOE IVANIC, AARON WEST, LAIMUTIS BYTAUTAS, KLAUS RUEDENBERG
     UNIVERSITY OF TOKYO: KIMIHIKO HIRAO, TAKAHITO NAKAJIMA,
          TAKAO TSUNEDA, MUNEAKI KAMIYA, SUSUMU YANAGISAWA,
          KIYOSHI YAGI, MAHITO CHIBA, SEIKEN TOKURA, NAOAKI KAWAKAMI
     UNIVERSITY OF AARHUS: FRANK JENSEN
     UNIVERSITY OF IOWA: VISVALDAS KAIRYS, HUI LI
     NATIONAL INST. OF STANDARDS AND TECHNOLOGY: WALT STEVENS, DAVID GARMER
     UNIVERSITY OF PISA: BENEDETTA MENNUCCI, JACOPO TOMASI
     UNIVERSITY OF MEMPHIS: HENRY KURTZ, PRAKASHAN KORAMBATH
     UNIVERSITY OF ALBERTA: TOBY ZENG, MARIUSZ KLOBUKOWSKI
     UNIVERSITY OF NEW ENGLAND: MARK SPACKMAN
     MIE UNIVERSITY: HIROAKI UMEDA
     NAT. INST. OF ADVANCED INDUSTRIAL SCIENCE AND TECHNOLOGY: KAZUO KITAURA
     MICHIGAN STATE UNIVERSITY:
          KAROL KOWALSKI, MARTA WLOCH, JEFFREY GOUR, JESSE LUTZ,
          WEI LI, PIOTR PIECUCH
     UNIVERSITY OF SILESIA: MONIKA MUSIAL, STANISLAW KUCHARSKI
     FACULTES UNIVERSITAIRES NOTRE-DAME DE LA PAIX:
          OLIVIER QUINET, BENOIT CHAMPAGNE
     UNIVERSITY OF CALIFORNIA - SANTA BARBARA: BERNARD KIRTMAN
     INSTITUTE FOR MOLECULAR SCIENCE:
          KAZUYA ISHIMURA, MICHIO KATOUDA, AND SHIGERU NAGASE
     UNIVERSITY OF NOTRE DAME: ANNA POMOGAEVA, DAN CHIPMAN
     KYUSHU UNIVERSITY:
          HARUYUKI NAKANO,
          FENG LONG GU, JACEK KORCHOWIEC, MARCIN MAKOWSKI, AND YURIKO AOKI,
          HIROTOSHI MORI AND EISAKU MIYOSHI
     PENNSYLVANIA STATE UNIVERSITY:
          TZVETELIN IORDANOV, CHET SWALINA, JONATHAN SKONE,
          SHARON HAMMES-SCHIFFER
     WASEDA UNIVERSITY:
          MASATO KOBAYASHI, TOMOKO AKAMA, TSUGUKI TOUMA,
          TAKESHI YOSHIKAWA, YASUHIRO IKABATA, HIROMI NAKAI
     NANJING UNIVERSITY: SHUHUA LI
     UNIVERSITY OF NEBRASKA:
          PEIFENG SU, DEJUN SI, NANDUN THELLAMUREGE, YALI WANG, HUI LI
     UNIVERSITY OF ZURICH: ROBERTO PEVERATI, KIM BALDRIDGE
     N. COPERNICUS UNIVERSITY AND JACKSON STATE UNIVERSITY:
          MARIA BARYSZ
     UNIVERSITY OF COPENHAGEN: CASPER STEINMANN
     TOKYO INSTITUTE OF TECHNOLOGY: HIROYA NAKATA
     NAGOYA UNIVERSITY: YOSHIO NISHIMOTO, STEPHAN IRLE


 PARALLEL VERSION RUNNING ON       12 PROCESSORS IN       12 NODES.

 EXECUTION OF GAMESS BEGUN Thu Jan 17 18:45:19 2019

            ECHO OF THE FIRST FEW INPUT CARDS -
 INPUT CARD> $CONTRL SCFTYP=RHF CITYP=ALDET $END                                            
 INPUT CARD> $GUESS GUESS=HUCKEL $END                                                       
 INPUT CARD> $SYSTEM MWORDS=300 $END                                                        
 INPUT CARD> $CIDET SZ=0 GROUP=C2V NCORE=2 NACT=16 NELS=10 NSTGSS=6 $END                    
 INPUT CARD> $DATA                                                                          
 INPUT CARD>N2...HF...Double-zeta basis                                                     
 INPUT CARD>Cnv   2                                                                         
 INPUT CARD>                                                                                
 INPUT CARD>N     7.0    0.0      0.0     0.0                                               
 INPUT CARD>S   7                                                                           
 INPUT CARD>  1   5909.0000000              0.0011900                                       
 INPUT CARD>  2    887.5000000              0.0090990                                       
 INPUT CARD>  3    204.7000000              0.0441450                                       
 INPUT CARD>  4     59.8400000              0.1504640                                       
 INPUT CARD>  5     20.0000000              0.3567410                                       
 INPUT CARD>  6      7.1930000              0.4465330                                       
 INPUT CARD>  7      2.6860000              0.1456030                                       
 INPUT CARD>S   2                                                                           
 INPUT CARD>  1      7.1930000             -0.1604050                                       
 INPUT CARD>  2      0.7000000              1.0582150                                       
 INPUT CARD>S   1                                                                           
 INPUT CARD>  1      0.2133000              1.0000000                                       
 INPUT CARD>P   4                                                                           
 INPUT CARD>  1     26.7900000              0.0182540                                       
 INPUT CARD>  2      5.9560000              0.1164610                                       
 INPUT CARD>  3      1.7070000              0.3901780                                       
 INPUT CARD>  4      0.5314000              0.6371020                                       
 INPUT CARD>P   1                                                                           
 INPUT CARD>  1      0.1654000              1.0000000                                       
 INPUT CARD>                                                                                
 INPUT CARD>N     7.0    0.0      0.0     3.8                                               
 INPUT CARD>S   7                                                                           
 INPUT CARD>  1   5909.0000000              0.0011900                                       
 INPUT CARD>  2    887.5000000              0.0090990                                       
 INPUT CARD>  3    204.7000000              0.0441450                                       
 INPUT CARD>  4     59.8400000              0.1504640                                       
 INPUT CARD>  5     20.0000000              0.3567410                                       
 INPUT CARD>  6      7.1930000              0.4465330                                       
 INPUT CARD>  7      2.6860000              0.1456030                                       
 INPUT CARD>S   2                                                                           
 INPUT CARD>  1      7.1930000             -0.1604050                                       
 INPUT CARD>  2      0.7000000              1.0582150                                       
 INPUT CARD>S   1                                                                           
 INPUT CARD>  1      0.2133000              1.0000000                                       
 INPUT CARD>P   4                                                                           
 INPUT CARD>  1     26.7900000              0.0182540                                       
 INPUT CARD>  2      5.9560000              0.1164610                                       
 INPUT CARD>  3      1.7070000              0.3901780                                       
 INPUT CARD>  4      0.5314000              0.6371020                                       
 INPUT CARD>P   1                                                                           
  300000000 WORDS OF MEMORY AVAILABLE


     RUN TITLE
     ---------
 N2...HF...Double-zeta basis                                                     

 THE POINT GROUP OF THE MOLECULE IS CNV     
 THE ORDER OF THE PRINCIPAL AXIS IS     2

 ATOM      ATOMIC                      COORDINATES (BOHR)
           CHARGE         X                   Y                   Z
 N           7.0     0.0000000000        0.0000000000        0.0000000000
 N           7.0     0.0000000000        0.0000000000        7.1809587533

          INTERNUCLEAR DISTANCES (ANGS.)
          ------------------------------

                1 N          2 N     

   1 N       0.0000000    3.8000000  
   2 N       3.8000000    0.0000000  

  * ... LESS THAN  3.000


     ATOMIC BASIS SET
     ----------------
 THE CONTRACTED PRIMITIVE FUNCTIONS HAVE BEEN UNNORMALIZED
 THE CONTRACTED BASIS FUNCTIONS ARE NOW NORMALIZED TO UNITY

  SHELL TYPE  PRIMITIVE        EXPONENT          CONTRACTION COEFFICIENT(S)

 N         

      1   S       1          5909.0000000    0.001189999548
      1   S       2           887.5000000    0.009098996542
      1   S       3           204.7000000    0.044144983225
      1   S       4            59.8400000    0.150463942825
      1   S       5            20.0000000    0.356740864442
      1   S       6             7.1930000    0.446532830321
      1   S       7             2.6860000    0.145602944672

      2   S       8             7.1930000   -0.160405033446
      2   S       9             0.7000000    1.058215220651

      3   S      10             0.2133000    1.000000000000

      4   P      11            26.7900000    0.018253998243
      4   P      12             5.9560000    0.116460988791
      4   P      13             1.7070000    0.390177962446
      4   P      14             0.5314000    0.637101938680

      5   P      15             0.1654000    1.000000000000

 N         

      6   S      16          5909.0000000    0.001189999548
      6   S      17           887.5000000    0.009098996542
      6   S      18           204.7000000    0.044144983225
      6   S      19            59.8400000    0.150463942825
      6   S      20            20.0000000    0.356740864442
      6   S      21             7.1930000    0.446532830321
      6   S      22             2.6860000    0.145602944672

      7   S      23             7.1930000   -0.160405033446
      7   S      24             0.7000000    1.058215220651

      8   S      25             0.2133000    1.000000000000

      9   P      26            26.7900000    0.018253998243
      9   P      27             5.9560000    0.116460988791
      9   P      28             1.7070000    0.390177962446
      9   P      29             0.5314000    0.637101938680

     10   P      30             0.1654000    1.000000000000

 TOTAL NUMBER OF BASIS SET SHELLS             =   10
 NUMBER OF CARTESIAN GAUSSIAN BASIS FUNCTIONS =   18
 NUMBER OF ELECTRONS                          =   14
 CHARGE OF MOLECULE                           =    0
 SPIN MULTIPLICITY                            =    1
 NUMBER OF OCCUPIED ORBITALS (ALPHA)          =    7
 NUMBER OF OCCUPIED ORBITALS (BETA )          =    7
 TOTAL NUMBER OF ATOMS                        =    2
 THE NUCLEAR REPULSION ENERGY IS        6.8236013718

 THIS MOLECULE IS RECOGNIZED AS BEING LINEAR,
 ORBITAL LZ DEGENERACY TOLERANCE ETOLLZ= 1.00E-06

     $CONTRL OPTIONS
     ---------------
 SCFTYP=RHF          RUNTYP=ENERGY       EXETYP=RUN     
 MPLEVL=       0     CITYP =ALDET        CCTYP =NONE         VBTYP =NONE    
 DFTTYP=NONE         TDDFT =NONE    
 MULT  =       1     ICHARG=       0     NZVAR =       0     COORD =UNIQUE  
 PP    =NONE         RELWFN=NONE         LOCAL =NONE         NUMGRD=       F
 ISPHER=      -1     NOSYM =       0     MAXIT =      30     UNITS =ANGS    
 PLTORB=       F     MOLPLT=       F     AIMPAC=       F     FRIEND=        
 NPRINT=       7     IREST =       0     GEOM  =INPUT   
 NORMF =       0     NORMP =       0     ITOL  =      20     ICUT  =       9
 INTTYP=BEST         GRDTYP=BEST         QMTTOL= 1.0E-06

     $SYSTEM OPTIONS
     ---------------
  REPLICATED MEMORY=   300000000 WORDS (ON EVERY NODE).
 DISTRIBUTED MEMDDI=           0 MILLION WORDS IN AGGREGATE,
 MEMDDI DISTRIBUTED OVER  12 PROCESSORS IS           0 WORDS/PROCESSOR.
 TOTAL MEMORY REQUESTED ON EACH PROCESSOR=   300000000 WORDS.
 TIMLIM=      525600.00 MINUTES, OR     365.0 DAYS.
 PARALL= T  BALTYP=  DLB     KDIAG=    0  COREFL= F
 MXSEQ2=     300 MXSEQ3=     150  mem10=         0

          ----------------
          PROPERTIES INPUT
          ----------------

     MOMENTS            FIELD           POTENTIAL          DENSITY
 IEMOM =       1   IEFLD =       0   IEPOT =       0   IEDEN =       0
 WHERE =COMASS     WHERE =NUCLEI     WHERE =NUCLEI     WHERE =NUCLEI  
 OUTPUT=BOTH       OUTPUT=BOTH       OUTPUT=BOTH       OUTPUT=BOTH    
 IEMINT=       0   IEFINT=       0                     IEDINT=       0
                                                       MORB  =       0
          EXTRAPOLATION IN EFFECT
          SOSCF IN EFFECT
 ORBITAL PRINTING OPTION: NPREO=     1    18     2     1

     -------------------------------
     INTEGRAL TRANSFORMATION OPTIONS
     -------------------------------
     NWORD  =            0
     CUTOFF = 1.0E-09     MPTRAN =       0
     DIRTRF =       F     AOINTS =DUP     

          ----------------------
          INTEGRAL INPUT OPTIONS
          ----------------------
 NOPK  =       1 NORDER=       0 SCHWRZ=       F

     ------------------------------------------
     THE POINT GROUP IS CNV, NAXIS= 2, ORDER= 4
     ------------------------------------------

     DIMENSIONS OF THE SYMMETRY SUBSPACES ARE
 A1  =   10     A2  =    0     B1  =    4     B2  =    4

 ..... DONE SETTING UP THE RUN .....
 CPU     0: STEP CPU TIME=     0.02 TOTAL CPU TIME=        0.0 (    0.0 MIN)
 TOTAL WALL CLOCK TIME=        0.0 SECONDS, CPU UTILIZATION IS 100.00%

          ********************
          1 ELECTRON INTEGRALS
          ********************
 ...... END OF ONE-ELECTRON INTEGRALS ......
 CPU     0: STEP CPU TIME=     0.00 TOTAL CPU TIME=        0.0 (    0.0 MIN)
 TOTAL WALL CLOCK TIME=        0.1 SECONDS, CPU UTILIZATION IS  33.33%

          -------------
          GUESS OPTIONS
          -------------
          GUESS =HUCKEL            NORB  =       0          NORDER=       0
          MIX   =       F          PRTMO =       F          PUNMO =       F
          TOLZ  = 1.0E-08          TOLE  = 1.0E-05
          SYMDEN=       F          PURIFY=       F

 INITIAL GUESS ORBITALS GENERATED BY HUCKEL   ROUTINE.
 HUCKEL GUESS REQUIRES      4352 WORDS.

 SYMMETRIES FOR INITIAL GUESS ORBITALS FOLLOW.   BOTH SET(S).
     7 ORBITALS ARE OCCUPIED (    2 CORE ORBITALS).
     3=A1       4=A1       5=A1       6=B1       7=B2       8=B1       9=B2  
    10=A1      11=A1      12=A1      13=A1      14=A1      15=B1      16=B1  
    17=B2  
 ...... END OF INITIAL ORBITAL SELECTION ......
 CPU     0: STEP CPU TIME=     0.00 TOTAL CPU TIME=        0.0 (    0.0 MIN)
 TOTAL WALL CLOCK TIME=        0.1 SECONDS, CPU UTILIZATION IS  28.57%

                    ----------------------
                    AO INTEGRAL TECHNOLOGY
                    ----------------------
     S,P,L SHELL ROTATED AXIS INTEGRALS, REPROGRAMMED BY
        KAZUYA ISHIMURA (IMS) AND JOSE SIERRA (SYNSTAR).
     S,P,D,L SHELL ROTATED AXIS INTEGRALS PROGRAMMED BY
        KAZUYA ISHIMURA (INSTITUTE FOR MOLECULAR SCIENCE).
     S,P,D,F,G SHELL TO TOTAL QUARTET ANGULAR MOMENTUM SUM 5,
        ERIC PROGRAM BY GRAHAM FLETCHER (ELORET AND NASA ADVANCED
        SUPERCOMPUTING DIVISION, AMES RESEARCH CENTER).
     S,P,D,F,G,L SHELL GENERAL RYS QUADRATURE PROGRAMMED BY
        MICHEL DUPUIS (PACIFIC NORTHWEST NATIONAL LABORATORY).

          --------------------
          2 ELECTRON INTEGRALS
          --------------------

 THE -PK- OPTION IS OFF, THE INTEGRALS ARE NOT IN SUPERMATRIX FORM.
 STORING   15000 INTEGRALS/RECORD ON DISK, USING 12 BYTES/INTEGRAL.
 TWO ELECTRON INTEGRAL EVALUATION REQUIRES   89411 WORDS OF MEMORY.
 II,JST,KST,LST =  1  1  1  1 NREC =         1 INTLOC =    1
 II,JST,KST,LST =  2  1  1  1 NREC =         1 INTLOC =    2
 II,JST,KST,LST =  3  1  1  1 NREC =         1 INTLOC =    7
 II,JST,KST,LST =  4  1  1  1 NREC =         1 INTLOC =   12
 II,JST,KST,LST =  5  1  1  1 NREC =         1 INTLOC =   12
 II,JST,KST,LST =  6  1  1  1 NREC =         1 INTLOC =   72
 II,JST,KST,LST =  7  1  1  1 NREC =         1 INTLOC =   72
 II,JST,KST,LST =  8  1  1  1 NREC =         1 INTLOC =  111
 II,JST,KST,LST =  9  1  1  1 NREC =         1 INTLOC =  111
 II,JST,KST,LST = 10  1  1  1 NREC =         1 INTLOC =  187
 TOTAL NUMBER OF NONZERO TWO-ELECTRON INTEGRALS =                3431
         12 INTEGRAL RECORDS WERE STORED ON DISK FILE  8.
  ...... END OF TWO-ELECTRON INTEGRALS .....
 CPU     0: STEP CPU TIME=     0.02 TOTAL CPU TIME=        0.0 (    0.0 MIN)
 TOTAL WALL CLOCK TIME=        0.1 SECONDS, CPU UTILIZATION IS  50.00%

          --------------------------
                 RHF SCF CALCULATION
          --------------------------

     NUCLEAR ENERGY =         6.8236013718
     MAXIT =   30     NPUNCH=    2
     EXTRAP=T  DAMP=F  SHIFT=F  RSTRCT=F  DIIS=F  DEM=F  SOSCF=T
     DENSITY MATRIX CONV=  1.00E-06
     SOSCF WILL OPTIMIZE      77 ORBITAL ROTATIONS, SOGTOL=   0.250
     MEMORY REQUIRED FOR RHF ITERS=     32828 WORDS.

 ITER EX DEM     TOTAL ENERGY        E CHANGE  DENSITY CHANGE     ORB. GRAD
   1  0  0     -107.7064902253  -107.7064902253   0.277337301   0.000000000
          ---------------START SECOND ORDER SCF---------------
   2  1  0     -107.8949706133    -0.1884803880   0.118338087   0.063031341
   3  2  0     -107.9106052232    -0.0156346099   0.025864193   0.024288282
   4  3  0     -107.9135795574    -0.0029743341   0.002980307   0.001685086
   5  4  0     -107.9135950031    -0.0000154457   0.001006514   0.000385957
   6  5  0     -107.9135958455    -0.0000008425   0.000032032   0.000024517
   7  6  0     -107.9135958501    -0.0000000045   0.000013668   0.000005823
   8  7  0     -107.9135958504    -0.0000000003   0.000000897   0.000000457
   9  8  0     -107.9135958504    -0.0000000000   0.000000048   0.000000028

          -----------------
          DENSITY CONVERGED
          -----------------
     TIME TO FORM FOCK OPERATORS=       0.0 SECONDS (       0.0 SEC/ITER)
     TIME TO SOLVE SCF EQUATIONS=       0.0 SECONDS (       0.0 SEC/ITER)

 FINAL RHF ENERGY IS     -107.9135958504 AFTER   9 ITERATIONS

 LZ VALUE ANALYSIS FOR THE MOS
 ----------------------------------------
 MO     1 (    1) HAS LZ(WEIGHT)= 0.00(100.0%) 
 MO     2 (    2) HAS LZ(WEIGHT)= 0.00(100.0%) 
 MO     3 (    3) HAS LZ(WEIGHT)= 0.00(100.0%) 
 MO     4 (    4) HAS LZ(WEIGHT)= 0.00(100.0%) 
 MO     5 (    5) HAS LZ(WEIGHT)= 0.00(100.0%) 
 MO     6 (    6) HAS LZ(WEIGHT)=-1.00( 50.0%)  1.00( 50.0%) 
 MO     7 (    6) HAS LZ(WEIGHT)=-1.00( 50.0%)  1.00( 50.0%) 
 MO     8 (    7) HAS LZ(WEIGHT)=-1.00( 50.0%)  1.00( 50.0%) 
 MO     9 (    7) HAS LZ(WEIGHT)=-1.00( 50.0%)  1.00( 50.0%) 
 MO    10 (    8) HAS LZ(WEIGHT)= 0.00(100.0%) 
 MO    11 (    9) HAS LZ(WEIGHT)= 0.00(100.0%) 
 MO    12 (   10) HAS LZ(WEIGHT)=-1.00( 50.0%)  1.00( 50.0%) 
 MO    13 (   10) HAS LZ(WEIGHT)=-1.00( 50.0%)  1.00( 50.0%) 
 MO    14 (   11) HAS LZ(WEIGHT)=-1.00( 50.0%)  1.00( 50.0%) 
 MO    15 (   11) HAS LZ(WEIGHT)=-1.00( 50.0%)  1.00( 50.0%) 
 MO    16 (   12) HAS LZ(WEIGHT)= 0.00(100.0%) 
 MO    17 (   13) HAS LZ(WEIGHT)= 0.00(100.0%) 
 MO    18 (   14) HAS LZ(WEIGHT)= 0.00(100.0%) 

          ------------
          EIGENVECTORS
          ------------

                      1          2          3          4          5
                  -15.8264   -15.8263    -1.0339    -1.0255    -0.3341
                     A1         A1         A1         A1         A1  
    1  N  1  S    0.706977   0.706981  -0.173203   0.173713   0.003888
    2  N  1  S   -0.000140  -0.000133   0.408930  -0.413848  -0.021124
    3  N  1  S    0.000918   0.000885   0.359123  -0.354991   0.008296
    4  N  1  X    0.000000   0.000000   0.000000   0.000000   0.000000
    5  N  1  Y    0.000000   0.000000   0.000000   0.000000   0.000000
    6  N  1  Z    0.000126   0.000076   0.002825   0.008926   0.488957
    7  N  1  X    0.000000   0.000000   0.000000   0.000000   0.000000
    8  N  1  Y    0.000000   0.000000   0.000000   0.000000   0.000000
    9  N  1  Z   -0.000036  -0.000047   0.005012   0.006231   0.303298
   10  N  2  S    0.706977  -0.706981  -0.173203  -0.173713   0.003888
   11  N  2  S   -0.000140   0.000133   0.408930   0.413848  -0.021124
   12  N  2  S    0.000918  -0.000885   0.359123   0.354991   0.008296
   13  N  2  X    0.000000   0.000000   0.000000   0.000000   0.000000
   14  N  2  Y    0.000000   0.000000   0.000000   0.000000   0.000000
   15  N  2  Z   -0.000126   0.000076  -0.002825   0.008926  -0.488957
   16  N  2  X    0.000000   0.000000   0.000000   0.000000   0.000000
   17  N  2  Y    0.000000   0.000000   0.000000   0.000000   0.000000
   18  N  2  Z    0.000036  -0.000047  -0.005012   0.006231  -0.303298

                      6          7          8          9         10
                   -0.3251    -0.3251    -0.1863    -0.1863    -0.1698
                     B2         B1         B2         B1         A1  
    1  N  1  S    0.000000   0.000000   0.000000   0.000000  -0.005015
    2  N  1  S    0.000000   0.000000   0.000000   0.000000   0.018789
    3  N  1  S    0.000000   0.000000   0.000000   0.000000   0.000572
    4  N  1  X    0.000000   0.504841   0.000000   0.508008   0.000000
    5  N  1  Y    0.504841   0.000000   0.508008   0.000000   0.000000
    6  N  1  Z    0.000000   0.000000   0.000000   0.000000   0.514832
    7  N  1  X    0.000000   0.294643   0.000000   0.293436   0.000000
    8  N  1  Y    0.294643   0.000000   0.293436   0.000000   0.000000
    9  N  1  Z    0.000000   0.000000   0.000000   0.000000   0.294198
   10  N  2  S    0.000000   0.000000   0.000000   0.000000   0.005015
   11  N  2  S    0.000000   0.000000   0.000000   0.000000  -0.018789
   12  N  2  S    0.000000   0.000000   0.000000   0.000000  -0.000572
   13  N  2  X    0.000000   0.504841   0.000000  -0.508008   0.000000
   14  N  2  Y    0.504841   0.000000  -0.508008   0.000000   0.000000
   15  N  2  Z    0.000000   0.000000   0.000000   0.000000   0.514832
   16  N  2  X    0.000000   0.294643   0.000000  -0.293436   0.000000
   17  N  2  Y    0.294643   0.000000  -0.293436   0.000000   0.000000
   18  N  2  Z    0.000000   0.000000   0.000000   0.000000   0.294198

                     11         12         13         14         15
                    0.5792     0.6273     0.6273     0.6548     0.6548
                     A1         B1         B2         B1         B2  
    1  N  1  S    0.012376   0.000000   0.000000   0.000000   0.000000
    2  N  1  S   -0.120631   0.000000   0.000000   0.000000   0.000000
    3  N  1  S    0.105784   0.000000   0.000000   0.000000   0.000000
    4  N  1  X    0.000000  -0.659386   0.000000  -0.661602   0.000000
    5  N  1  Y    0.000000   0.000000  -0.659386   0.000000  -0.661602
    6  N  1  Z   -0.656110   0.000000   0.000000   0.000000   0.000000
    7  N  1  X    0.000000   0.770246   0.000000   0.787150   0.000000
    8  N  1  Y    0.000000   0.000000   0.770246   0.000000   0.787150
    9  N  1  Z    0.712740   0.000000   0.000000   0.000000   0.000000
   10  N  2  S    0.012376   0.000000   0.000000   0.000000   0.000000
   11  N  2  S   -0.120631   0.000000   0.000000   0.000000   0.000000
   12  N  2  S    0.105784   0.000000   0.000000   0.000000   0.000000
   13  N  2  X    0.000000  -0.659386   0.000000   0.661602   0.000000
   14  N  2  Y    0.000000   0.000000  -0.659386   0.000000   0.661602
   15  N  2  Z    0.656110   0.000000   0.000000   0.000000   0.000000
   16  N  2  X    0.000000   0.770246   0.000000  -0.787150   0.000000
   17  N  2  Y    0.000000   0.000000   0.770246   0.000000  -0.787150
   18  N  2  Z   -0.712740   0.000000   0.000000   0.000000   0.000000

                     16         17         18
                    0.7171     0.8935     0.9357
                     A1         A1         A1  
    1  N  1  S   -0.022081  -0.090454   0.087582
    2  N  1  S    0.243462   1.100510  -1.086195
    3  N  1  S   -0.229234  -1.093871   1.089378
    4  N  1  X    0.000000   0.000000   0.000000
    5  N  1  Y    0.000000   0.000000   0.000000
    6  N  1  Z   -0.652703  -0.076793  -0.158375
    7  N  1  X    0.000000   0.000000   0.000000
    8  N  1  Y    0.000000   0.000000   0.000000
    9  N  1  Z    0.816710   0.107953   0.220926
   10  N  2  S    0.022081  -0.090454  -0.087582
   11  N  2  S   -0.243462   1.100510   1.086195
   12  N  2  S    0.229234  -1.093871  -1.089378
   13  N  2  X    0.000000   0.000000   0.000000
   14  N  2  Y    0.000000   0.000000   0.000000
   15  N  2  Z   -0.652703   0.076793  -0.158375
   16  N  2  X    0.000000   0.000000   0.000000
   17  N  2  Y    0.000000   0.000000   0.000000
   18  N  2  Z    0.816710  -0.107953   0.220926
 ...... END OF RHF CALCULATION ......
 CPU     0: STEP CPU TIME=     0.00 TOTAL CPU TIME=        0.0 (    0.0 MIN)
 TOTAL WALL CLOCK TIME=        0.1 SECONDS, CPU UTILIZATION IS  44.44%

     ----------------------------------------------------------------
     PROPERTY VALUES FOR THE RHF   SELF-CONSISTENT FIELD WAVEFUNCTION
     ----------------------------------------------------------------

          -----------------
          ENERGY COMPONENTS
          -----------------

         WAVEFUNCTION NORMALIZATION =       1.0000000000

                ONE ELECTRON ENERGY =    -160.0813403552
                TWO ELECTRON ENERGY =      45.3441431331
           NUCLEAR REPULSION ENERGY =       6.8236013718
                                      ------------------
                       TOTAL ENERGY =    -107.9135958504

 ELECTRON-ELECTRON POTENTIAL ENERGY =      45.3441431331
  NUCLEUS-ELECTRON POTENTIAL ENERGY =    -267.5435352780
   NUCLEUS-NUCLEUS POTENTIAL ENERGY =       6.8236013718
                                      ------------------
             TOTAL POTENTIAL ENERGY =    -215.3757907731
               TOTAL KINETIC ENERGY =     107.4621949227
                 VIRIAL RATIO (V/T) =       2.0042005556

  ...... PI ENERGY ANALYSIS ......

 ENERGY ANALYSIS:
            FOCK ENERGY=    -69.3930537087
          BARE H ENERGY=   -160.0813403552
     ELECTRONIC ENERGY =   -114.7371970319
         KINETIC ENERGY=    107.4621949227
          N-N REPULSION=      6.8236013718
           TOTAL ENERGY=   -107.9135956602
        SIGMA PART(1+2)=   -103.0161865680
               (K,V1,2)=    101.0111454862   -238.9510349546     34.9237029004
           PI PART(1+2)=    -11.7210104639
               (K,V1,2)=      6.4510494365    -28.5925003234     10.4204404229
  SIGMA SKELETON, ERROR=    -96.1925851963     -0.0000000000
             MIXED PART= 0.00000E+00 0.00000E+00 0.00000E+00 0.00000E+00
 ...... END OF PI ENERGY ANALYSIS ......

          ---------------------------------------
          MULLIKEN AND LOWDIN POPULATION ANALYSES
          ---------------------------------------

               ----- POPULATIONS IN EACH AO -----
                             MULLIKEN      LOWDIN
              1  N  1  S      2.00013     1.99716
              2  N  1  S      1.06820     1.03686
              3  N  1  S      0.93152     0.96566
              4  N  1  X      0.66683     0.64110
              5  N  1  Y      0.66683     0.64110
              6  N  1  Z      0.63730     0.61135
              7  N  1  X      0.33317     0.35890
              8  N  1  Y      0.33317     0.35890
              9  N  1  Z      0.36286     0.38897
             10  N  2  S      2.00013     1.99716
             11  N  2  S      1.06820     1.03686
             12  N  2  S      0.93152     0.96566
             13  N  2  X      0.66683     0.64110
             14  N  2  Y      0.66683     0.64110
             15  N  2  Z      0.63730     0.61135
             16  N  2  X      0.33317     0.35890
             17  N  2  Y      0.33317     0.35890
             18  N  2  Z      0.36286     0.38897

          ----- MULLIKEN ATOMIC OVERLAP POPULATIONS -----
          (OFF-DIAGONAL ELEMENTS NEED TO BE MULTIPLIED BY 2)

             1           2

    1    6.9692214
    2    0.0307786   6.9692214

          TOTAL MULLIKEN AND LOWDIN ATOMIC POPULATIONS
       ATOM         MULL.POP.    CHARGE          LOW.POP.     CHARGE
    1 N             7.000000    0.000000         7.000000    0.000000
    2 N             7.000000   -0.000000         7.000000   -0.000000

          ---------------------
          ELECTROSTATIC MOMENTS
          ---------------------

 POINT   1           X           Y           Z (BOHR)    CHARGE
                 0.000000    0.000000    3.590479        0.00 (A.U.)
         DX          DY          DZ         /D/  (DEBYE)
     0.000000    0.000000   -0.000000    0.000000
 ...... END OF PROPERTY EVALUATION ......
 CPU     0: STEP CPU TIME=     0.00 TOTAL CPU TIME=        0.0 (    0.0 MIN)
 TOTAL WALL CLOCK TIME=        0.1 SECONDS, CPU UTILIZATION IS  28.57%

 DETERMINANT CI OPTIONS   NRNFG   NPFLG
 INTEGRAL TRANSFORMATION    1       0
 DIAGONALIZE HAMILTONIAN    1       0
 FORM 1E- DENSITY MATRIX    1       0
 FORM 2E- DENSITY MATRIX    0       0

     --------------------------------------------------
          AMES LABORATORY DETERMINANTAL FULL CI
     PROGRAM WRITTEN BY JOE IVANIC AND KLAUS RUEDENBERG
     --------------------------------------------------

 THE POINT GROUP                  =   C2V     
 THE STATE SYMMETRY               =   A1      
 NUMBER OF CORE ORBITALS          =    2
 NUMBER OF ACTIVE ORBITALS        =   16
 NUMBER OF ALPHA ELECTRONS        =    7 (   5 ACTIVE)
 NUMBER OF BETA ELECTRONS         =    7 (   5 ACTIVE)
 NUMBER OF OCCUPIED ORBITALS      =   18
 NUMBER OF CI STATES REQUESTED    =    1
 NUMBER OF CI STARTING VECTORS    =    6
 MAX. NO. OF CI EXPANSION VECTORS =   12
 SIZE OF INITIAL CI GUESS MATRIX  =  300
 MAX. NO. OF CI ITERS/STATE       =  100
 CI DIAGONALIZATION CRITERION     = 1.00E-06
 CI PROPERTIES WILL BE FOUND FOR ROOT NUMBER   1
 1E- DENSITY MATRIX OPTIONS ARE 1

 CORRELATION ENERGY ANALYSIS      =    F

 SYMMETRIES FOR THE   2 CORE,  16 ACTIVE ARE

     CORE= A1    A1  

   ACTIVE= A1    A1    A1    B2    B1    B2    B1    A1    A1    B1  
           B2    B1    B2    A1    A1    A1  

     --------------------------------------------
     PARTIAL TWO ELECTRON INTEGRAL TRANSFORMATION
     --------------------------------------------

 NUMBER OF CORE MOLECULAR ORBITALS     =    2
 NUMBER OF OCCUPIED MOLECULAR ORBITALS =   18
 TOTAL NUMBER OF MOLECULAR ORBITALS    =   18
 TOTAL NUMBER OF ATOMIC ORBITALS       =   18
 THRESHOLD FOR KEEPING TRANSFORMED 2E- INTEGRALS = 1.000E-09

 -------------------------------     ------------------------------
 DISTRIBUTED DATA TRANSFORMATION     PROGRAM WRITTEN BY G. FLETCHER
 -------------------------------     ------------------------------

 THE DISTRIBUTED MEMORY REQUIRED FOR THIS STEP IS MEMDDI=         1 MWORDS
 CREATING DISTRIBUTED STORAGE FOR [OCC OCC|OCC OCC] INTEGRALS
 DDI: Creating Array [0] - 171 x 171 = 29241 words.
 CREATING WORKSPACE OF SIZE VVOO
 DDI: Creating Array [1] - 171 x 171 = 29241 words.
 FOR   12 PROCESSORS, THE REPLICATED MEMORY NEEDED IS       58507 WORDS.

      DIRECT 4-INDEX TRANSFORMATION 
      SCHWARZ INEQUALITY TEST SKIPPED          0 INTEGRAL BLOCKS
 ----- FROZEN CORE ENERGY =       -92.8063606272
 ... END OF INTEGRAL TRANSFORMATION ...
 CPU     0: STEP CPU TIME=     0.01 TOTAL CPU TIME=        0.0 (    0.0 MIN)
 TOTAL WALL CLOCK TIME=        0.2 SECONDS, CPU UTILIZATION IS  27.78%

     --------------------------------------------------
          AMES LABORATORY DETERMINANTAL FULL CI
     PROGRAM WRITTEN BY JOE IVANIC AND KLAUS RUEDENBERG
     --------------------------------------------------

 THE NUMBER OF DETERMINANTS HAVING SPACE SYMMETRY A1 
 IN POINT GROUP C2V  WITH SZ=  0.0 IS        4777056
 THE DETERMINANT FULL CI REQUIRES       119865995 WORDS
 INITIAL CI VECTOR GUESS TIME  :          1.4
 INITIAL FULL CI ITERATION TIME:          5.8

 ITERATION      ENERGY           GRADIENT
     0     -108.7423902035     0.45728845
     1     -108.8426320961     0.18502117
     2     -108.8549120659     0.06935695
     3     -108.8564465409     0.03033207
     4     -108.8567448560     0.01532055
     5     -108.8568165943     0.00621062
     6     -108.8568272900     0.00220508
     7     -108.8568284375     0.00134714
     8     -108.8568288819     0.00103507
     9     -108.8568293440     0.00079119
    10     -108.8568294967     0.00050339
    11     -108.8568295613     0.00032578
    12     -108.8568295825     0.00019911
    13     -108.8568295889     0.00011837
    14     -108.8568295928     0.00007940
    15     -108.8568295948     0.00006436
    16     -108.8568295962     0.00004578
    17     -108.8568295970     0.00005019
    18     -108.8568295977     0.00004983
    19     -108.8568295983     0.00004659
    20     -108.8568295991     0.00004309
    21     -108.8568296001     0.00005209
    22     -108.8568296017     0.00006778
    23     -108.8568296066     0.00013961
    24     -108.8568296158     0.00022475
    25     -108.8568296311     0.00026800
    26     -108.8568296981     0.00051418
    27     -108.8568301860     0.00227691
    28     -108.8568715913     0.01008559
    29     -108.8568929230     0.00621599
    30     -108.8569016010     0.00390580
    31     -108.8569049482     0.00280706
    32     -108.8569072714     0.00212210
    33     -108.8569086303     0.00158014
    34     -108.8569092096     0.00094594
    35     -108.8569094343     0.00062539
    36     -108.8569095143     0.00040809
    37     -108.8569095443     0.00025301
    38     -108.8569095605     0.00016085
    39     -108.8569095681     0.00011728
    40     -108.8569095714     0.00006868
    41     -108.8569095726     0.00004783
    42     -108.8569095731     0.00003854
    43     -108.8569095734     0.00002585
    44     -108.8569095736     0.00001902
    45     -108.8569095737     0.00001502
    46     -108.8569095738     0.00000933
    47     -108.8569095738     0.00000648
    48     -108.8569095738     0.00000493
    49     -108.8569095738     0.00000287
    50     -108.8569095738     0.00000189
    51     -108.8569095738     0.00000141
    52     -108.8569095738     0.00000081

 CONVERGED STATE    1 ENERGY=     -108.8569095738 IN   52 ITERS

 ALL STATES CONVERGED.

 CI EIGENVECTORS WILL BE LABELED IN GROUP=C2V     
 PRINTING CI COEFFICIENTS LARGER THAN  0.050000

 STATE   1  ENERGY=      -108.8569095738  S=  0.00  SZ=  0.00  SPACE SYM=A1  

      ALPHA       |      BETA        | COEFFICIENT
------------------|------------------|------------
 1111100000000000 | 1111100000000000 |   0.2487704
 1111001000000000 | 1111001000000000 |  -0.2466293
 1110110000000000 | 1110110000000000 |  -0.2466293
 1110011000000000 | 1110011000000000 |   0.2445211
 1101100100000000 | 1101100100000000 |  -0.2353787
 1100110100000000 | 1100110100000000 |   0.2334378
 1101001100000000 | 1101001100000000 |   0.2334378
 1100011100000000 | 1100011100000000 |  -0.2315273
 1110101000000000 | 1111010000000000 |   0.1644108
 1111010000000000 | 1110101000000000 |   0.1644108
 1110100100000000 | 1101110000000000 |   0.1604001
 1101110000000000 | 1110100100000000 |   0.1604001
 1101101000000000 | 1111000100000000 |  -0.1604001
 1111000100000000 | 1101101000000000 |  -0.1604001
 1110001100000000 | 1101011000000000 |   0.1590521
 1101011000000000 | 1110001100000000 |   0.1590521
 1100111000000000 | 1110010100000000 |  -0.1590521
 1110010100000000 | 1100111000000000 |  -0.1590521
 1100101100000000 | 1101010100000000 |  -0.1556167
 1101010100000000 | 1100101100000000 |  -0.1556167
 1111001000000000 | 1110110000000000 |   0.0822162
 1110110000000000 | 1111001000000000 |   0.0822162
 1111100000000000 | 1110011000000000 |   0.0821946
 1110011000000000 | 1111100000000000 |   0.0821946
 1111001000000000 | 1101100100000000 |  -0.0802719
 1101100100000000 | 1111001000000000 |  -0.0802719
 1101100100000000 | 1110110000000000 |   0.0802719
 1110110000000000 | 1101100100000000 |   0.0802719
 1111100000000000 | 1101001100000000 |   0.0801281
 1101001100000000 | 1111100000000000 |   0.0801281
 1100110100000000 | 1111100000000000 |  -0.0801281
 1111100000000000 | 1100110100000000 |  -0.0801281
 1110011000000000 | 1100110100000000 |  -0.0795977
 1100110100000000 | 1110011000000000 |  -0.0795977
 1101001100000000 | 1110011000000000 |   0.0795977
 1110011000000000 | 1101001100000000 |   0.0795977
 1110110000000000 | 1100011100000000 |   0.0794544
 1100011100000000 | 1110110000000000 |   0.0794544
 1100011100000000 | 1111001000000000 |  -0.0794544
 1111001000000000 | 1100011100000000 |  -0.0794544
 1101001100000000 | 1100110100000000 |  -0.0778189
 1100110100000000 | 1101001100000000 |  -0.0778189
 1101100100000000 | 1100011100000000 |  -0.0777978
 1100011100000000 | 1101100100000000 |  -0.0777978
 ..... DONE WITH DETERMINANT CI COMPUTATION .....
 CPU     0: STEP CPU TIME=   134.83 TOTAL CPU TIME=      134.9 (    2.2 MIN)
 TOTAL WALL CLOCK TIME=      172.3 SECONDS, CPU UTILIZATION IS  78.30%

     ---------------------------
     ONE PARTICLE DENSITY MATRIX
     ---------------------------

 DENSITY MATRIX WILL BE SAVED FOR   1-TH STATE WITH S= 0.00

 CI EIGENSTATE   1 TOTAL ENERGY =     -108.8569095738

          NATURAL ORBITALS IN ATOMIC ORBITAL BASIS
          ----------------------------------------

                      1          2          3          4          5
                    2.0000     2.0000     1.9851     1.9847     1.0353
                     A1         A1         A1         A1         A1  
    1  N  1  S    0.706977  -0.706981  -0.170831   0.171209   0.000892
    2  N  1  S   -0.000140   0.000133   0.380551  -0.383220  -0.003394
    3  N  1  S    0.000918  -0.000885   0.387118  -0.385509  -0.000816
    4  N  1  X    0.000000   0.000000   0.000000   0.000000   0.000000
    5  N  1  Y    0.000000   0.000000   0.000000   0.000000   0.000000
    6  N  1  Z    0.000126  -0.000076  -0.001524  -0.001489   0.553207
    7  N  1  X    0.000000   0.000000   0.000000   0.000000   0.000000
    8  N  1  Y    0.000000   0.000000   0.000000   0.000000   0.000000
    9  N  1  Z   -0.000036   0.000047   0.001725   0.002093   0.229227
   10  N  2  S    0.706977   0.706981  -0.170831  -0.171209   0.000892
   11  N  2  S   -0.000140  -0.000133   0.380551   0.383220  -0.003394
   12  N  2  S    0.000918   0.000885   0.387118   0.385509  -0.000816
   13  N  2  X    0.000000   0.000000   0.000000   0.000000   0.000000
   14  N  2  Y    0.000000   0.000000   0.000000   0.000000   0.000000
   15  N  2  Z   -0.000126  -0.000076   0.001524  -0.001489  -0.553207
   16  N  2  X    0.000000   0.000000   0.000000   0.000000   0.000000
   17  N  2  Y    0.000000   0.000000   0.000000   0.000000   0.000000
   18  N  2  Z    0.000036   0.000047  -0.001725   0.002093  -0.229227

                      6          7          8          9         10
                    1.0014     1.0014     0.9896     0.9896     0.9558
                     B1         B2         B1         B2         A1  
    1  N  1  S    0.000000   0.000000   0.000000   0.000000  -0.001036
    2  N  1  S    0.000000   0.000000   0.000000   0.000000   0.003325
    3  N  1  S    0.000000   0.000000   0.000000   0.000000   0.000970
    4  N  1  X    0.558852   0.000000   0.561224   0.000000   0.000000
    5  N  1  Y    0.000000   0.558852   0.000000   0.561224   0.000000
    6  N  1  Z    0.000000   0.000000   0.000000   0.000000   0.566958
    7  N  1  X    0.228377   0.000000   0.227017   0.000000   0.000000
    8  N  1  Y    0.000000   0.228377   0.000000   0.227017   0.000000
    9  N  1  Z    0.000000   0.000000   0.000000   0.000000   0.225855
   10  N  2  S    0.000000   0.000000   0.000000   0.000000   0.001036
   11  N  2  S    0.000000   0.000000   0.000000   0.000000  -0.003325
   12  N  2  S    0.000000   0.000000   0.000000   0.000000  -0.000970
   13  N  2  X    0.558852   0.000000  -0.561224   0.000000   0.000000
   14  N  2  Y    0.000000   0.558852   0.000000  -0.561224   0.000000
   15  N  2  Z    0.000000   0.000000   0.000000   0.000000   0.566958
   16  N  2  X    0.228377   0.000000  -0.227017   0.000000   0.000000
   17  N  2  Y    0.000000   0.228377   0.000000  -0.227017   0.000000
   18  N  2  Z    0.000000   0.000000   0.000000   0.000000   0.225855

                     11         12         13         14         15
                    0.0112     0.0106     0.0065     0.0060     0.0060
                     A1         A1         A1         B2         B1  
    1  N  1  S   -0.095217  -0.094749  -0.009959   0.000000   0.000000
    2  N  1  S    1.107815   1.116566   0.145805   0.000000   0.000000
    3  N  1  S   -1.078128  -1.093450  -0.156720   0.000000   0.000000
    4  N  1  X    0.000000   0.000000   0.000000   0.000000  -0.614279
    5  N  1  Y    0.000000   0.000000   0.000000  -0.614279   0.000000
    6  N  1  Z    0.068580  -0.058421  -0.603923   0.000000   0.000000
    7  N  1  X    0.000000   0.000000   0.000000   0.000000   0.792425
    8  N  1  Y    0.000000   0.000000   0.000000   0.792425   0.000000
    9  N  1  Z   -0.072148   0.067144   0.744254   0.000000   0.000000
   10  N  2  S   -0.095217   0.094749  -0.009959   0.000000   0.000000
   11  N  2  S    1.107815  -1.116566   0.145805   0.000000   0.000000
   12  N  2  S   -1.078128   1.093450  -0.156720   0.000000   0.000000
   13  N  2  X    0.000000   0.000000   0.000000   0.000000  -0.614279
   14  N  2  Y    0.000000   0.000000   0.000000  -0.614279   0.000000
   15  N  2  Z   -0.068580  -0.058421   0.603923   0.000000   0.000000
   16  N  2  X    0.000000   0.000000   0.000000   0.000000   0.792425
   17  N  2  Y    0.000000   0.000000   0.000000   0.792425   0.000000
   18  N  2  Z    0.072148   0.067144  -0.744254   0.000000   0.000000

                     16         17         18
                    0.0058     0.0058     0.0052
                     B2         B1         A1  
    1  N  1  S    0.000000   0.000000   0.008285
    2  N  1  S    0.000000   0.000000  -0.130870
    3  N  1  S    0.000000   0.000000   0.145120
    4  N  1  X    0.000000  -0.617103   0.000000
    5  N  1  Y   -0.617103   0.000000   0.000000
    6  N  1  Z    0.000000   0.000000  -0.625603
    7  N  1  X    0.000000   0.808809   0.000000
    8  N  1  Y    0.808809   0.000000   0.000000
    9  N  1  Z    0.000000   0.000000   0.864229
   10  N  2  S    0.000000   0.000000  -0.008285
   11  N  2  S    0.000000   0.000000   0.130870
   12  N  2  S    0.000000   0.000000  -0.145120
   13  N  2  X    0.000000   0.617103   0.000000
   14  N  2  Y    0.617103   0.000000   0.000000
   15  N  2  Z    0.000000   0.000000  -0.625603
   16  N  2  X    0.000000  -0.808809   0.000000
   17  N  2  Y   -0.808809   0.000000   0.000000
   18  N  2  Z    0.000000   0.000000   0.864229
 ..... DONE WITH ONE PARTICLE DENSITY MATRIX .....
 CPU     0: STEP CPU TIME=     1.07 TOTAL CPU TIME=      135.9 (    2.3 MIN)
 TOTAL WALL CLOCK TIME=      173.3 SECONDS, CPU UTILIZATION IS  78.43%

     --------------------------------------------------------
     ALDET CI PROPERTIES...FOR THE WAVEFUNCTION OF STATE    1
               USING THE EXPECTATION VALUE DENSITY
     --------------------------------------------------------

          -----------------
          ENERGY COMPONENTS
          -----------------

         WAVEFUNCTION NORMALIZATION =       1.0000000000

                ONE ELECTRON ENERGY =    -161.3168291619
                TWO ELECTRON ENERGY =      45.6363182163
           NUCLEAR REPULSION ENERGY =       6.8236013718
                                      ------------------
                       TOTAL ENERGY =    -108.8569095738

 ELECTRON-ELECTRON POTENTIAL ENERGY =      45.6363182163
  NUCLEUS-ELECTRON POTENTIAL ENERGY =    -270.0281780160
   NUCLEUS-NUCLEUS POTENTIAL ENERGY =       6.8236013718
                                      ------------------
             TOTAL POTENTIAL ENERGY =    -217.5682584280
               TOTAL KINETIC ENERGY =     108.7113488542
                 VIRIAL RATIO (V/T) =       2.0013389653

          ---------------------------------------
          MULLIKEN AND LOWDIN POPULATION ANALYSES
          ---------------------------------------

               ----- POPULATIONS IN EACH AO -----
                             MULLIKEN      LOWDIN
              1  N  1  S      2.00012     1.99634
              2  N  1  S      0.98052     0.98291
              3  N  1  S      1.01500     1.01631
              4  N  1  X      0.75976     0.72080
              5  N  1  Y      0.75976     0.72080
              6  N  1  Z      0.75936     0.72036
              7  N  1  X      0.24165     0.28061
              8  N  1  Y      0.24165     0.28061
              9  N  1  Z      0.24219     0.28127
             10  N  2  S      2.00012     1.99634
             11  N  2  S      0.98052     0.98291
             12  N  2  S      1.01500     1.01631
             13  N  2  X      0.75976     0.72080
             14  N  2  Y      0.75976     0.72080
             15  N  2  Z      0.75936     0.72036
             16  N  2  X      0.24165     0.28061
             17  N  2  Y      0.24165     0.28061
             18  N  2  Z      0.24219     0.28127

          ----- MULLIKEN ATOMIC OVERLAP POPULATIONS -----
          (OFF-DIAGONAL ELEMENTS NEED TO BE MULTIPLIED BY 2)

             1           2

    1    6.9990879
    2    0.0009121   6.9990879

          TOTAL MULLIKEN AND LOWDIN ATOMIC POPULATIONS
       ATOM         MULL.POP.    CHARGE          LOW.POP.     CHARGE
    1 N             7.000000    0.000000         7.000000    0.000000
    2 N             7.000000    0.000000         7.000000    0.000000

          ---------------------
          ELECTROSTATIC MOMENTS
          ---------------------

 POINT   1           X           Y           Z (BOHR)    CHARGE
                 0.000000    0.000000    3.590479        0.00 (A.U.)
         DX          DY          DZ         /D/  (DEBYE)
     0.000000    0.000000    0.000000    0.000000
 ...... END OF PROPERTY EVALUATION ......
 CPU     0: STEP CPU TIME=     0.01 TOTAL CPU TIME=      136.0 (    2.3 MIN)
 TOTAL WALL CLOCK TIME=      173.8 SECONDS, CPU UTILIZATION IS  78.21%
             119866847  WORDS OF DYNAMIC MEMORY USED
 EXECUTION OF GAMESS TERMINATED NORMALLY Thu Jan 17 18:48:13 2019
 DDI: 305760 bytes (0.3 MB / 0 MWords) used by master data server.

 ----------------------------------------
 CPU timing information for all processes
 ========================================
 0: 127.520 + 8.584 = 136.104
 1: 128.144 + 9.732 = 137.876
 2: 127.84 + 10.132 = 137.216
 3: 127.732 + 10.40 = 137.772
 4: 128.372 + 10.304 = 138.676
 5: 127.464 + 9.680 = 137.144
 6: 125.764 + 9.256 = 135.20
 7: 126.844 + 9.612 = 136.456
 8: 126.896 + 8.380 = 135.276
 9: 127.164 + 8.764 = 135.928
 10: 127.700 + 8.788 = 136.488
 11: 126.744 + 8.816 = 135.560
 12: 0.512 + 5.292 = 5.804
 13: 0.04 + 0.04 = 0.08
 14: 0.00 + 0.08 = 0.08
 15: 0.04 + 0.00 = 0.04
 16: 0.08 + 0.00 = 0.08
 17: 0.04 + 0.00 = 0.04
 18: 0.00 + 0.04 = 0.04
 19: 0.04 + 0.04 = 0.08
 20: 0.04 + 0.00 = 0.04
 21: 0.04 + 0.04 = 0.08
 22: 0.04 + 0.04 = 0.08
 23: 0.00 + 0.08 = 0.08
 ----------------------------------------
 ddikick.x: exited gracefully.
unset echo
----- accounting info -----
Files used on the master node localhost were:
-rw-rw-r-- 1 maho maho    13429 Jan 17 18:48 ./N2.SV/3.8/N2.SV.fullCI.3.8.gamess.dat
-rw------- 1 maho maho     1813 Jan 17 18:45 ./N2.SV/3.8/N2.SV.fullCI.3.8.gamess.F05
-rw-rw-r-- 1 maho maho   180016 Jan 17 18:45 ./N2.SV/3.8/N2.SV.fullCI.3.8.gamess.F08
-rw-rw-r-- 1 maho maho     1376 Jan 17 18:45 ./N2.SV/3.8/N2.SV.fullCI.3.8.gamess.F09
-rw-rw-r-- 1 maho maho  1865040 Jan 17 18:48 ./N2.SV/3.8/N2.SV.fullCI.3.8.gamess.F10
-rw-rw-r-- 1 maho maho 38216480 Jan 17 18:48 ./N2.SV/3.8/N2.SV.fullCI.3.8.gamess.F12
-rw------- 1 maho maho     1813 Jan 17 18:45 ./N2.SV/3.8/N2.SV.fullCI.3.8.gamess.inp
-rw-rw-r-- 1 maho maho    49398 Jan 17 18:48 ./N2.SV/3.8/N2.SV.fullCI.3.8.gamess.log
ls: No match.
ls: No match.
ls: No match.
Thu Jan 17 18:48:16 JST 2019
0.0u 0.0s 2:57.30 0.0% 0+0k 0+8io 0pf+0w
