----- GAMESS execution script 'rungms' -----
This job is running on host localhost
under operating system Linux at Thu Jan 17 18:51:38 JST 2019
Available scratch disk space (Kbyte units) at beginning of the job is
Filesystem     1K-blocks      Used Available Use% Mounted on
/dev/sda1      895286904 141746592 708039284  17% /
GAMESS temporary binary files will be written to .
GAMESS supplementary output files will be written to .
Copying input file N2.SV/4.0/N2.SV.fullCI.4.0.gamess.inp to your run's scratch directory...
cp N2.SV/4.0/N2.SV.fullCI.4.0.gamess.inp ./N2.SV/4.0/N2.SV.fullCI.4.0.gamess.F05
unset echo
/work/pubchem/pm6/pkg/gamess_intel/ddikick.x /work/pubchem/pm6/pkg/gamess_intel/gamess.00.x N2.SV/4.0/N2.SV.fullCI.4.0.gamess -ddi 12 12 localhost localhost localhost localhost localhost localhost localhost localhost localhost localhost localhost localhost -scr .

 Distributed Data Interface kickoff program.
 Initiating 12 compute processes on 12 nodes to run the following command:
 /work/pubchem/pm6/pkg/gamess_intel/gamess.00.x N2.SV/4.0/N2.SV.fullCI.4.0.gamess 

          ******************************************************
          *         GAMESS VERSION =  5 DEC 2014 (R1)          *
          *             FROM IOWA STATE UNIVERSITY             *
          * M.W.SCHMIDT, K.K.BALDRIDGE, J.A.BOATZ, S.T.ELBERT, *
          *   M.S.GORDON, J.H.JENSEN, S.KOSEKI, N.MATSUNAGA,   *
          *          K.A.NGUYEN, S.J.SU, T.L.WINDUS,           *
          *       TOGETHER WITH M.DUPUIS, J.A.MONTGOMERY       *
          *         J.COMPUT.CHEM.  14, 1347-1363(1993)        *
          **************** 64 BIT INTEL VERSION ****************

  SINCE 1993, STUDENTS AND POSTDOCS WORKING AT IOWA STATE UNIVERSITY
  AND ALSO IN THEIR VARIOUS JOBS AFTER LEAVING ISU HAVE MADE IMPORTANT
  CONTRIBUTIONS TO THE CODE:
     IVANA ADAMOVIC, CHRISTINE AIKENS, YURI ALEXEEV, POOJA ARORA,
     ANDREY ASADCHEV, ROB BELL, PRADIPTA BANDYOPADHYAY, JONATHAN BENTZ,
     BRETT BODE, KURT BRORSEN, CALEB CARLIN, GALINA CHABAN, WEI CHEN,
     CHEOL HO CHOI, PAUL DAY, ALBERT DEFUSCO, NUWAN DESILVA, TIM DUDLEY,
     DMITRI FEDOROV, GRAHAM FLETCHER, MARK FREITAG, KURT GLAESEMANN,
     DAN KEMP, GRANT MERRILL, NORIYUKI MINEZAWA, JONATHAN MULLIN,
     TAKESHI NAGATA, SEAN NEDD, HEATHER NETZLOFF, BOSILJKA NJEGIC, RYAN OLSON,
     MIKE PAK, SPENCER PRUITT, LUKE ROSKOP, JIM SHOEMAKER, LYUDMILA SLIPCHENKO,
     TONY SMITH, SAROM SOK, JIE SONG, TETSUYA TAKETSUGU, SIMON WEBB,
     PENG XU, SOOHAENG YOO, FEDERICO ZAHARIEV

  ADDITIONAL CODE HAS BEEN PROVIDED BY COLLABORATORS IN OTHER GROUPS:
     IOWA STATE UNIVERSITY:
          JOE IVANIC, AARON WEST, LAIMUTIS BYTAUTAS, KLAUS RUEDENBERG
     UNIVERSITY OF TOKYO: KIMIHIKO HIRAO, TAKAHITO NAKAJIMA,
          TAKAO TSUNEDA, MUNEAKI KAMIYA, SUSUMU YANAGISAWA,
          KIYOSHI YAGI, MAHITO CHIBA, SEIKEN TOKURA, NAOAKI KAWAKAMI
     UNIVERSITY OF AARHUS: FRANK JENSEN
     UNIVERSITY OF IOWA: VISVALDAS KAIRYS, HUI LI
     NATIONAL INST. OF STANDARDS AND TECHNOLOGY: WALT STEVENS, DAVID GARMER
     UNIVERSITY OF PISA: BENEDETTA MENNUCCI, JACOPO TOMASI
     UNIVERSITY OF MEMPHIS: HENRY KURTZ, PRAKASHAN KORAMBATH
     UNIVERSITY OF ALBERTA: TOBY ZENG, MARIUSZ KLOBUKOWSKI
     UNIVERSITY OF NEW ENGLAND: MARK SPACKMAN
     MIE UNIVERSITY: HIROAKI UMEDA
     NAT. INST. OF ADVANCED INDUSTRIAL SCIENCE AND TECHNOLOGY: KAZUO KITAURA
     MICHIGAN STATE UNIVERSITY:
          KAROL KOWALSKI, MARTA WLOCH, JEFFREY GOUR, JESSE LUTZ,
          WEI LI, PIOTR PIECUCH
     UNIVERSITY OF SILESIA: MONIKA MUSIAL, STANISLAW KUCHARSKI
     FACULTES UNIVERSITAIRES NOTRE-DAME DE LA PAIX:
          OLIVIER QUINET, BENOIT CHAMPAGNE
     UNIVERSITY OF CALIFORNIA - SANTA BARBARA: BERNARD KIRTMAN
     INSTITUTE FOR MOLECULAR SCIENCE:
          KAZUYA ISHIMURA, MICHIO KATOUDA, AND SHIGERU NAGASE
     UNIVERSITY OF NOTRE DAME: ANNA POMOGAEVA, DAN CHIPMAN
     KYUSHU UNIVERSITY:
          HARUYUKI NAKANO,
          FENG LONG GU, JACEK KORCHOWIEC, MARCIN MAKOWSKI, AND YURIKO AOKI,
          HIROTOSHI MORI AND EISAKU MIYOSHI
     PENNSYLVANIA STATE UNIVERSITY:
          TZVETELIN IORDANOV, CHET SWALINA, JONATHAN SKONE,
          SHARON HAMMES-SCHIFFER
     WASEDA UNIVERSITY:
          MASATO KOBAYASHI, TOMOKO AKAMA, TSUGUKI TOUMA,
          TAKESHI YOSHIKAWA, YASUHIRO IKABATA, HIROMI NAKAI
     NANJING UNIVERSITY: SHUHUA LI
     UNIVERSITY OF NEBRASKA:
          PEIFENG SU, DEJUN SI, NANDUN THELLAMUREGE, YALI WANG, HUI LI
     UNIVERSITY OF ZURICH: ROBERTO PEVERATI, KIM BALDRIDGE
     N. COPERNICUS UNIVERSITY AND JACKSON STATE UNIVERSITY:
          MARIA BARYSZ
     UNIVERSITY OF COPENHAGEN: CASPER STEINMANN
     TOKYO INSTITUTE OF TECHNOLOGY: HIROYA NAKATA
     NAGOYA UNIVERSITY: YOSHIO NISHIMOTO, STEPHAN IRLE


 PARALLEL VERSION RUNNING ON       12 PROCESSORS IN       12 NODES.

 EXECUTION OF GAMESS BEGUN Thu Jan 17 18:51:38 2019

            ECHO OF THE FIRST FEW INPUT CARDS -
 INPUT CARD> $CONTRL SCFTYP=RHF CITYP=ALDET $END                                            
 INPUT CARD> $GUESS GUESS=HUCKEL $END                                                       
 INPUT CARD> $SYSTEM MWORDS=300 $END                                                        
 INPUT CARD> $CIDET SZ=0 GROUP=C2V NCORE=2 NACT=16 NELS=10 NSTGSS=6 $END                    
 INPUT CARD> $DATA                                                                          
 INPUT CARD>N2...HF...Double-zeta basis                                                     
 INPUT CARD>Cnv   2                                                                         
 INPUT CARD>                                                                                
 INPUT CARD>N     7.0    0.0      0.0     0.0                                               
 INPUT CARD>S   7                                                                           
 INPUT CARD>  1   5909.0000000              0.0011900                                       
 INPUT CARD>  2    887.5000000              0.0090990                                       
 INPUT CARD>  3    204.7000000              0.0441450                                       
 INPUT CARD>  4     59.8400000              0.1504640                                       
 INPUT CARD>  5     20.0000000              0.3567410                                       
 INPUT CARD>  6      7.1930000              0.4465330                                       
 INPUT CARD>  7      2.6860000              0.1456030                                       
 INPUT CARD>S   2                                                                           
 INPUT CARD>  1      7.1930000             -0.1604050                                       
 INPUT CARD>  2      0.7000000              1.0582150                                       
 INPUT CARD>S   1                                                                           
 INPUT CARD>  1      0.2133000              1.0000000                                       
 INPUT CARD>P   4                                                                           
 INPUT CARD>  1     26.7900000              0.0182540                                       
 INPUT CARD>  2      5.9560000              0.1164610                                       
 INPUT CARD>  3      1.7070000              0.3901780                                       
 INPUT CARD>  4      0.5314000              0.6371020                                       
 INPUT CARD>P   1                                                                           
 INPUT CARD>  1      0.1654000              1.0000000                                       
 INPUT CARD>                                                                                
 INPUT CARD>N     7.0    0.0      0.0     4.0                                               
 INPUT CARD>S   7                                                                           
 INPUT CARD>  1   5909.0000000              0.0011900                                       
 INPUT CARD>  2    887.5000000              0.0090990                                       
 INPUT CARD>  3    204.7000000              0.0441450                                       
 INPUT CARD>  4     59.8400000              0.1504640                                       
 INPUT CARD>  5     20.0000000              0.3567410                                       
 INPUT CARD>  6      7.1930000              0.4465330                                       
 INPUT CARD>  7      2.6860000              0.1456030                                       
 INPUT CARD>S   2                                                                           
 INPUT CARD>  1      7.1930000             -0.1604050                                       
 INPUT CARD>  2      0.7000000              1.0582150                                       
 INPUT CARD>S   1                                                                           
 INPUT CARD>  1      0.2133000              1.0000000                                       
 INPUT CARD>P   4                                                                           
 INPUT CARD>  1     26.7900000              0.0182540                                       
 INPUT CARD>  2      5.9560000              0.1164610                                       
 INPUT CARD>  3      1.7070000              0.3901780                                       
 INPUT CARD>  4      0.5314000              0.6371020                                       
 INPUT CARD>P   1                                                                           
  300000000 WORDS OF MEMORY AVAILABLE


     RUN TITLE
     ---------
 N2...HF...Double-zeta basis                                                     

 THE POINT GROUP OF THE MOLECULE IS CNV     
 THE ORDER OF THE PRINCIPAL AXIS IS     2

 ATOM      ATOMIC                      COORDINATES (BOHR)
           CHARGE         X                   Y                   Z
 N           7.0     0.0000000000        0.0000000000        0.0000000000
 N           7.0     0.0000000000        0.0000000000        7.5589039509

          INTERNUCLEAR DISTANCES (ANGS.)
          ------------------------------

                1 N          2 N     

   1 N       0.0000000    4.0000000  
   2 N       4.0000000    0.0000000  

  * ... LESS THAN  3.000


     ATOMIC BASIS SET
     ----------------
 THE CONTRACTED PRIMITIVE FUNCTIONS HAVE BEEN UNNORMALIZED
 THE CONTRACTED BASIS FUNCTIONS ARE NOW NORMALIZED TO UNITY

  SHELL TYPE  PRIMITIVE        EXPONENT          CONTRACTION COEFFICIENT(S)

 N         

      1   S       1          5909.0000000    0.001189999548
      1   S       2           887.5000000    0.009098996542
      1   S       3           204.7000000    0.044144983225
      1   S       4            59.8400000    0.150463942825
      1   S       5            20.0000000    0.356740864442
      1   S       6             7.1930000    0.446532830321
      1   S       7             2.6860000    0.145602944672

      2   S       8             7.1930000   -0.160405033446
      2   S       9             0.7000000    1.058215220651

      3   S      10             0.2133000    1.000000000000

      4   P      11            26.7900000    0.018253998243
      4   P      12             5.9560000    0.116460988791
      4   P      13             1.7070000    0.390177962446
      4   P      14             0.5314000    0.637101938680

      5   P      15             0.1654000    1.000000000000

 N         

      6   S      16          5909.0000000    0.001189999548
      6   S      17           887.5000000    0.009098996542
      6   S      18           204.7000000    0.044144983225
      6   S      19            59.8400000    0.150463942825
      6   S      20            20.0000000    0.356740864442
      6   S      21             7.1930000    0.446532830321
      6   S      22             2.6860000    0.145602944672

      7   S      23             7.1930000   -0.160405033446
      7   S      24             0.7000000    1.058215220651

      8   S      25             0.2133000    1.000000000000

      9   P      26            26.7900000    0.018253998243
      9   P      27             5.9560000    0.116460988791
      9   P      28             1.7070000    0.390177962446
      9   P      29             0.5314000    0.637101938680

     10   P      30             0.1654000    1.000000000000

 TOTAL NUMBER OF BASIS SET SHELLS             =   10
 NUMBER OF CARTESIAN GAUSSIAN BASIS FUNCTIONS =   18
 NUMBER OF ELECTRONS                          =   14
 CHARGE OF MOLECULE                           =    0
 SPIN MULTIPLICITY                            =    1
 NUMBER OF OCCUPIED ORBITALS (ALPHA)          =    7
 NUMBER OF OCCUPIED ORBITALS (BETA )          =    7
 TOTAL NUMBER OF ATOMS                        =    2
 THE NUCLEAR REPULSION ENERGY IS        6.4824213032

 THIS MOLECULE IS RECOGNIZED AS BEING LINEAR,
 ORBITAL LZ DEGENERACY TOLERANCE ETOLLZ= 1.00E-06

     $CONTRL OPTIONS
     ---------------
 SCFTYP=RHF          RUNTYP=ENERGY       EXETYP=RUN     
 MPLEVL=       0     CITYP =ALDET        CCTYP =NONE         VBTYP =NONE    
 DFTTYP=NONE         TDDFT =NONE    
 MULT  =       1     ICHARG=       0     NZVAR =       0     COORD =UNIQUE  
 PP    =NONE         RELWFN=NONE         LOCAL =NONE         NUMGRD=       F
 ISPHER=      -1     NOSYM =       0     MAXIT =      30     UNITS =ANGS    
 PLTORB=       F     MOLPLT=       F     AIMPAC=       F     FRIEND=        
 NPRINT=       7     IREST =       0     GEOM  =INPUT   
 NORMF =       0     NORMP =       0     ITOL  =      20     ICUT  =       9
 INTTYP=BEST         GRDTYP=BEST         QMTTOL= 1.0E-06

     $SYSTEM OPTIONS
     ---------------
  REPLICATED MEMORY=   300000000 WORDS (ON EVERY NODE).
 DISTRIBUTED MEMDDI=           0 MILLION WORDS IN AGGREGATE,
 MEMDDI DISTRIBUTED OVER  12 PROCESSORS IS           0 WORDS/PROCESSOR.
 TOTAL MEMORY REQUESTED ON EACH PROCESSOR=   300000000 WORDS.
 TIMLIM=      525600.00 MINUTES, OR     365.0 DAYS.
 PARALL= T  BALTYP=  DLB     KDIAG=    0  COREFL= F
 MXSEQ2=     300 MXSEQ3=     150  mem10=         0

          ----------------
          PROPERTIES INPUT
          ----------------

     MOMENTS            FIELD           POTENTIAL          DENSITY
 IEMOM =       1   IEFLD =       0   IEPOT =       0   IEDEN =       0
 WHERE =COMASS     WHERE =NUCLEI     WHERE =NUCLEI     WHERE =NUCLEI  
 OUTPUT=BOTH       OUTPUT=BOTH       OUTPUT=BOTH       OUTPUT=BOTH    
 IEMINT=       0   IEFINT=       0                     IEDINT=       0
                                                       MORB  =       0
          EXTRAPOLATION IN EFFECT
          SOSCF IN EFFECT
 ORBITAL PRINTING OPTION: NPREO=     1    18     2     1

     -------------------------------
     INTEGRAL TRANSFORMATION OPTIONS
     -------------------------------
     NWORD  =            0
     CUTOFF = 1.0E-09     MPTRAN =       0
     DIRTRF =       F     AOINTS =DUP     

          ----------------------
          INTEGRAL INPUT OPTIONS
          ----------------------
 NOPK  =       1 NORDER=       0 SCHWRZ=       F

     ------------------------------------------
     THE POINT GROUP IS CNV, NAXIS= 2, ORDER= 4
     ------------------------------------------

     DIMENSIONS OF THE SYMMETRY SUBSPACES ARE
 A1  =   10     A2  =    0     B1  =    4     B2  =    4

 ..... DONE SETTING UP THE RUN .....
 CPU     0: STEP CPU TIME=     0.02 TOTAL CPU TIME=        0.0 (    0.0 MIN)
 TOTAL WALL CLOCK TIME=        0.0 SECONDS, CPU UTILIZATION IS 100.00%

          ********************
          1 ELECTRON INTEGRALS
          ********************
 ...... END OF ONE-ELECTRON INTEGRALS ......
 CPU     0: STEP CPU TIME=     0.00 TOTAL CPU TIME=        0.0 (    0.0 MIN)
 TOTAL WALL CLOCK TIME=        0.1 SECONDS, CPU UTILIZATION IS  40.00%

          -------------
          GUESS OPTIONS
          -------------
          GUESS =HUCKEL            NORB  =       0          NORDER=       0
          MIX   =       F          PRTMO =       F          PUNMO =       F
          TOLZ  = 1.0E-08          TOLE  = 1.0E-05
          SYMDEN=       F          PURIFY=       F

 INITIAL GUESS ORBITALS GENERATED BY HUCKEL   ROUTINE.
 HUCKEL GUESS REQUIRES      4352 WORDS.

 SYMMETRIES FOR INITIAL GUESS ORBITALS FOLLOW.   BOTH SET(S).
     7 ORBITALS ARE OCCUPIED (    2 CORE ORBITALS).
     3=A1       4=A1       5=A1       6=B1       7=B2       8=B1       9=B2  
    10=A1      11=A1      12=A1      13=A1      14=A1      15=B1      16=B1  
    17=B2  
 ...... END OF INITIAL ORBITAL SELECTION ......
 CPU     0: STEP CPU TIME=     0.00 TOTAL CPU TIME=        0.0 (    0.0 MIN)
 TOTAL WALL CLOCK TIME=        0.1 SECONDS, CPU UTILIZATION IS  33.33%

                    ----------------------
                    AO INTEGRAL TECHNOLOGY
                    ----------------------
     S,P,L SHELL ROTATED AXIS INTEGRALS, REPROGRAMMED BY
        KAZUYA ISHIMURA (IMS) AND JOSE SIERRA (SYNSTAR).
     S,P,D,L SHELL ROTATED AXIS INTEGRALS PROGRAMMED BY
        KAZUYA ISHIMURA (INSTITUTE FOR MOLECULAR SCIENCE).
     S,P,D,F,G SHELL TO TOTAL QUARTET ANGULAR MOMENTUM SUM 5,
        ERIC PROGRAM BY GRAHAM FLETCHER (ELORET AND NASA ADVANCED
        SUPERCOMPUTING DIVISION, AMES RESEARCH CENTER).
     S,P,D,F,G,L SHELL GENERAL RYS QUADRATURE PROGRAMMED BY
        MICHEL DUPUIS (PACIFIC NORTHWEST NATIONAL LABORATORY).

          --------------------
          2 ELECTRON INTEGRALS
          --------------------

 THE -PK- OPTION IS OFF, THE INTEGRALS ARE NOT IN SUPERMATRIX FORM.
 STORING   15000 INTEGRALS/RECORD ON DISK, USING 12 BYTES/INTEGRAL.
 TWO ELECTRON INTEGRAL EVALUATION REQUIRES   89411 WORDS OF MEMORY.
 II,JST,KST,LST =  1  1  1  1 NREC =         1 INTLOC =    1
 II,JST,KST,LST =  2  1  1  1 NREC =         1 INTLOC =    2
 II,JST,KST,LST =  3  1  1  1 NREC =         1 INTLOC =    7
 II,JST,KST,LST =  4  1  1  1 NREC =         1 INTLOC =   22
 II,JST,KST,LST =  5  1  1  1 NREC =         1 INTLOC =   67
 II,JST,KST,LST =  6  1  1  1 NREC =         1 INTLOC =   67
 II,JST,KST,LST =  7  1  1  1 NREC =         1 INTLOC =   98
 II,JST,KST,LST =  8  1  1  1 NREC =         1 INTLOC =   98
 II,JST,KST,LST =  9  1  1  1 NREC =         1 INTLOC =  166
 II,JST,KST,LST = 10  1  1  1 NREC =         1 INTLOC =  224
 TOTAL NUMBER OF NONZERO TWO-ELECTRON INTEGRALS =                3276
         12 INTEGRAL RECORDS WERE STORED ON DISK FILE  8.
  ...... END OF TWO-ELECTRON INTEGRALS .....
 CPU     0: STEP CPU TIME=     0.01 TOTAL CPU TIME=        0.0 (    0.0 MIN)
 TOTAL WALL CLOCK TIME=        0.1 SECONDS, CPU UTILIZATION IS  42.86%

          --------------------------
                 RHF SCF CALCULATION
          --------------------------

     NUCLEAR ENERGY =         6.4824213032
     MAXIT =   30     NPUNCH=    2
     EXTRAP=T  DAMP=F  SHIFT=F  RSTRCT=F  DIIS=F  DEM=F  SOSCF=T
     DENSITY MATRIX CONV=  1.00E-06
     SOSCF WILL OPTIMIZE      77 ORBITAL ROTATIONS, SOGTOL=   0.250
     MEMORY REQUIRED FOR RHF ITERS=     32828 WORDS.

 ITER EX DEM     TOTAL ENERGY        E CHANGE  DENSITY CHANGE     ORB. GRAD
   1  0  0     -107.6927667985  -107.6927667985   0.275418629   0.000000000
          ---------------START SECOND ORDER SCF---------------
   2  1  0     -107.8783955358    -0.1856287373   0.117318829   0.063062499
   3  2  0     -107.8939982301    -0.0156026943   0.025942704   0.024335874
   4  3  0     -107.8970168434    -0.0030186134   0.002888246   0.001529577
   5  4  0     -107.8970303985    -0.0000135550   0.000970108   0.000381158
   6  5  0     -107.8970311034    -0.0000007050   0.000026163   0.000020314
   7  6  0     -107.8970311065    -0.0000000030   0.000009931   0.000004262
   8  7  0     -107.8970311067    -0.0000000002   0.000000777   0.000000400
   9  8  0     -107.8970311067    -0.0000000000   0.000000045   0.000000024

          -----------------
          DENSITY CONVERGED
          -----------------
     TIME TO FORM FOCK OPERATORS=       0.0 SECONDS (       0.0 SEC/ITER)
     TIME TO SOLVE SCF EQUATIONS=       0.0 SECONDS (       0.0 SEC/ITER)

 FINAL RHF ENERGY IS     -107.8970311067 AFTER   9 ITERATIONS

 LZ VALUE ANALYSIS FOR THE MOS
 ----------------------------------------
 MO     1 (    1) HAS LZ(WEIGHT)= 0.00(100.0%) 
 MO     2 (    2) HAS LZ(WEIGHT)= 0.00(100.0%) 
 MO     3 (    3) HAS LZ(WEIGHT)= 0.00(100.0%) 
 MO     4 (    4) HAS LZ(WEIGHT)= 0.00(100.0%) 
 MO     5 (    5) HAS LZ(WEIGHT)= 0.00(100.0%) 
 MO     6 (    6) HAS LZ(WEIGHT)=-1.00( 50.0%)  1.00( 50.0%) 
 MO     7 (    6) HAS LZ(WEIGHT)=-1.00( 50.0%)  1.00( 50.0%) 
 MO     8 (    7) HAS LZ(WEIGHT)=-1.00( 50.0%)  1.00( 50.0%) 
 MO     9 (    7) HAS LZ(WEIGHT)=-1.00( 50.0%)  1.00( 50.0%) 
 MO    10 (    8) HAS LZ(WEIGHT)= 0.00(100.0%) 
 MO    11 (    9) HAS LZ(WEIGHT)= 0.00(100.0%) 
 MO    12 (   10) HAS LZ(WEIGHT)=-1.00( 50.0%)  1.00( 50.0%) 
 MO    13 (   10) HAS LZ(WEIGHT)=-1.00( 50.0%)  1.00( 50.0%) 
 MO    14 (   11) HAS LZ(WEIGHT)=-1.00( 50.0%)  1.00( 50.0%) 
 MO    15 (   11) HAS LZ(WEIGHT)=-1.00( 50.0%)  1.00( 50.0%) 
 MO    16 (   12) HAS LZ(WEIGHT)= 0.00(100.0%) 
 MO    17 (   13) HAS LZ(WEIGHT)= 0.00(100.0%) 
 MO    18 (   14) HAS LZ(WEIGHT)= 0.00(100.0%) 

          ------------
          EIGENVECTORS
          ------------

                      1          2          3          4          5
                  -15.8233   -15.8233    -1.0317    -1.0249    -0.3272
                     A1         A1         A1         A1         A1  
    1  N  1  S    0.706974  -0.706978  -0.173258  -0.173626  -0.003167
    2  N  1  S   -0.000127   0.000120   0.408990   0.412896   0.017645
    3  N  1  S    0.000913  -0.000882   0.359313   0.355829  -0.007520
    4  N  1  X    0.000000   0.000000   0.000000   0.000000   0.000000
    5  N  1  Y    0.000000   0.000000   0.000000   0.000000   0.000000
    6  N  1  Z    0.000105  -0.000063   0.002776  -0.007413  -0.491252
    7  N  1  X    0.000000   0.000000   0.000000   0.000000   0.000000
    8  N  1  Y    0.000000   0.000000   0.000000   0.000000   0.000000
    9  N  1  Z   -0.000028   0.000043   0.004471  -0.005350  -0.304210
   10  N  2  S    0.706974   0.706978  -0.173258   0.173626  -0.003167
   11  N  2  S   -0.000127  -0.000120   0.408990  -0.412896   0.017645
   12  N  2  S    0.000913   0.000882   0.359313  -0.355829  -0.007520
   13  N  2  X    0.000000   0.000000   0.000000   0.000000   0.000000
   14  N  2  Y    0.000000   0.000000   0.000000   0.000000   0.000000
   15  N  2  Z   -0.000105  -0.000063  -0.002776  -0.007413   0.491252
   16  N  2  X    0.000000   0.000000   0.000000   0.000000   0.000000
   17  N  2  Y    0.000000   0.000000   0.000000   0.000000   0.000000
   18  N  2  Z    0.000028   0.000043  -0.004471  -0.005350   0.304210

                      6          7          8          9         10
                   -0.3202    -0.3202    -0.1888    -0.1888    -0.1755
                     B1         B2         B1         B2         A1  
    1  N  1  S    0.000000   0.000000   0.000000   0.000000  -0.004003
    2  N  1  S    0.000000   0.000000   0.000000   0.000000   0.015434
    3  N  1  S    0.000000   0.000000   0.000000   0.000000  -0.000301
    4  N  1  X    0.504769   0.000000  -0.506868   0.000000   0.000000
    5  N  1  Y    0.000000   0.504769   0.000000  -0.506868   0.000000
    6  N  1  Z    0.000000   0.000000   0.000000   0.000000   0.512585
    7  N  1  X    0.295217   0.000000  -0.294295   0.000000   0.000000
    8  N  1  Y    0.000000   0.295217   0.000000  -0.294295   0.000000
    9  N  1  Z    0.000000   0.000000   0.000000   0.000000   0.293539
   10  N  2  S    0.000000   0.000000   0.000000   0.000000   0.004003
   11  N  2  S    0.000000   0.000000   0.000000   0.000000  -0.015434
   12  N  2  S    0.000000   0.000000   0.000000   0.000000   0.000301
   13  N  2  X    0.504769   0.000000   0.506868   0.000000   0.000000
   14  N  2  Y    0.000000   0.504769   0.000000   0.506868   0.000000
   15  N  2  Z    0.000000   0.000000   0.000000   0.000000   0.512585
   16  N  2  X    0.295217   0.000000   0.294295   0.000000   0.000000
   17  N  2  Y    0.000000   0.295217   0.000000   0.294295   0.000000
   18  N  2  Z    0.000000   0.000000   0.000000   0.000000   0.293539

                     11         12         13         14         15
                    0.5878     0.6319     0.6319     0.6515     0.6515
                     A1         B2         B1         B2         B1  
    1  N  1  S    0.009370   0.000000   0.000000   0.000000   0.000000
    2  N  1  S   -0.093747   0.000000   0.000000   0.000000   0.000000
    3  N  1  S    0.083894   0.000000   0.000000   0.000000   0.000000
    4  N  1  X    0.000000   0.000000  -0.660202   0.000000   0.661667
    5  N  1  Y    0.000000  -0.660202   0.000000   0.661667   0.000000
    6  N  1  Z   -0.658814   0.000000   0.000000   0.000000   0.000000
    7  N  1  X    0.000000   0.000000   0.772938   0.000000  -0.783789
    8  N  1  Y    0.000000   0.772938   0.000000  -0.783789   0.000000
    9  N  1  Z    0.729661   0.000000   0.000000   0.000000   0.000000
   10  N  2  S    0.009370   0.000000   0.000000   0.000000   0.000000
   11  N  2  S   -0.093747   0.000000   0.000000   0.000000   0.000000
   12  N  2  S    0.083894   0.000000   0.000000   0.000000   0.000000
   13  N  2  X    0.000000   0.000000  -0.660202   0.000000  -0.661667
   14  N  2  Y    0.000000  -0.660202   0.000000  -0.661667   0.000000
   15  N  2  Z    0.658814   0.000000   0.000000   0.000000   0.000000
   16  N  2  X    0.000000   0.000000   0.772938   0.000000   0.783789
   17  N  2  Y    0.000000   0.772938   0.000000   0.783789   0.000000
   18  N  2  Z   -0.729661   0.000000   0.000000   0.000000   0.000000

                     16         17         18
                    0.7065     0.8974     0.9227
                     A1         A1         A1  
    1  N  1  S   -0.015198  -0.090771  -0.089260
    2  N  1  S    0.168363   1.104446   1.098586
    3  N  1  S   -0.159130  -1.097795  -1.097835
    4  N  1  X    0.000000   0.000000   0.000000
    5  N  1  Y    0.000000   0.000000   0.000000
    6  N  1  Z   -0.659966  -0.058135   0.107772
    7  N  1  X    0.000000   0.000000   0.000000
    8  N  1  Y    0.000000   0.000000   0.000000
    9  N  1  Z    0.812300   0.082668  -0.148287
   10  N  2  S    0.015198  -0.090771   0.089260
   11  N  2  S   -0.168363   1.104446  -1.098586
   12  N  2  S    0.159130  -1.097795   1.097835
   13  N  2  X    0.000000   0.000000   0.000000
   14  N  2  Y    0.000000   0.000000   0.000000
   15  N  2  Z   -0.659966   0.058135   0.107772
   16  N  2  X    0.000000   0.000000   0.000000
   17  N  2  Y    0.000000   0.000000   0.000000
   18  N  2  Z    0.812300  -0.082668  -0.148287
 ...... END OF RHF CALCULATION ......
 CPU     0: STEP CPU TIME=     0.01 TOTAL CPU TIME=        0.0 (    0.0 MIN)
 TOTAL WALL CLOCK TIME=        0.1 SECONDS, CPU UTILIZATION IS  50.00%

     ----------------------------------------------------------------
     PROPERTY VALUES FOR THE RHF   SELF-CONSISTENT FIELD WAVEFUNCTION
     ----------------------------------------------------------------

          -----------------
          ENERGY COMPONENTS
          -----------------

         WAVEFUNCTION NORMALIZATION =       1.0000000000

                ONE ELECTRON ENERGY =    -159.4172163150
                TWO ELECTRON ENERGY =      45.0377639051
           NUCLEAR REPULSION ENERGY =       6.4824213032
                                      ------------------
                       TOTAL ENERGY =    -107.8970311067

 ELECTRON-ELECTRON POTENTIAL ENERGY =      45.0377639051
  NUCLEUS-ELECTRON POTENTIAL ENERGY =    -266.9038888746
   NUCLEUS-NUCLEUS POTENTIAL ENERGY =       6.4824213032
                                      ------------------
             TOTAL POTENTIAL ENERGY =    -215.3837036663
               TOTAL KINETIC ENERGY =     107.4866725596
                 VIRIAL RATIO (V/T) =       2.0038177621

  ...... PI ENERGY ANALYSIS ......

 ENERGY ANALYSIS:
            FOCK ENERGY=    -69.3416881398
          BARE H ENERGY=   -159.4172163150
     ELECTRONIC ENERGY =   -114.3794522274
         KINETIC ENERGY=    107.4866725596
          N-N REPULSION=      6.4824213032
           TOTAL ENERGY=   -107.8970309242
        SIGMA PART(1+2)=   -102.7624272929
               (K,V1,2)=    101.0332329695   -238.4973112629     34.7016510005
           PI PART(1+2)=    -11.6170249345
               (K,V1,2)=      6.4534395901    -28.4065776117     10.3361130871
  SIGMA SKELETON, ERROR=    -96.2800059897      0.0000000000
             MIXED PART= 0.00000E+00 0.00000E+00 0.00000E+00 0.00000E+00
 ...... END OF PI ENERGY ANALYSIS ......

          ---------------------------------------
          MULLIKEN AND LOWDIN POPULATION ANALYSES
          ---------------------------------------

               ----- POPULATIONS IN EACH AO -----
                             MULLIKEN      LOWDIN
              1  N  1  S      2.00012     1.99715
              2  N  1  S      1.06681     1.03603
              3  N  1  S      0.93296     0.96663
              4  N  1  X      0.66687     0.64138
              5  N  1  Y      0.66687     0.64138
              6  N  1  Z      0.64183     0.61684
              7  N  1  X      0.33313     0.35862
              8  N  1  Y      0.33313     0.35862
              9  N  1  Z      0.35828     0.38335
             10  N  2  S      2.00012     1.99715
             11  N  2  S      1.06681     1.03603
             12  N  2  S      0.93296     0.96663
             13  N  2  X      0.66687     0.64138
             14  N  2  Y      0.66687     0.64138
             15  N  2  Z      0.64183     0.61684
             16  N  2  X      0.33313     0.35862
             17  N  2  Y      0.33313     0.35862
             18  N  2  Z      0.35828     0.38335

          ----- MULLIKEN ATOMIC OVERLAP POPULATIONS -----
          (OFF-DIAGONAL ELEMENTS NEED TO BE MULTIPLIED BY 2)

             1           2

    1    6.9795387
    2    0.0204613   6.9795387

          TOTAL MULLIKEN AND LOWDIN ATOMIC POPULATIONS
       ATOM         MULL.POP.    CHARGE          LOW.POP.     CHARGE
    1 N             7.000000   -0.000000         7.000000   -0.000000
    2 N             7.000000    0.000000         7.000000    0.000000

          ---------------------
          ELECTROSTATIC MOMENTS
          ---------------------

 POINT   1           X           Y           Z (BOHR)    CHARGE
                 0.000000    0.000000    3.779452        0.00 (A.U.)
         DX          DY          DZ         /D/  (DEBYE)
     0.000000    0.000000    0.000000    0.000000
 ...... END OF PROPERTY EVALUATION ......
 CPU     0: STEP CPU TIME=     0.00 TOTAL CPU TIME=        0.0 (    0.0 MIN)
 TOTAL WALL CLOCK TIME=        0.1 SECONDS, CPU UTILIZATION IS  36.36%

 DETERMINANT CI OPTIONS   NRNFG   NPFLG
 INTEGRAL TRANSFORMATION    1       0
 DIAGONALIZE HAMILTONIAN    1       0
 FORM 1E- DENSITY MATRIX    1       0
 FORM 2E- DENSITY MATRIX    0       0

     --------------------------------------------------
          AMES LABORATORY DETERMINANTAL FULL CI
     PROGRAM WRITTEN BY JOE IVANIC AND KLAUS RUEDENBERG
     --------------------------------------------------

 THE POINT GROUP                  =   C2V     
 THE STATE SYMMETRY               =   A1      
 NUMBER OF CORE ORBITALS          =    2
 NUMBER OF ACTIVE ORBITALS        =   16
 NUMBER OF ALPHA ELECTRONS        =    7 (   5 ACTIVE)
 NUMBER OF BETA ELECTRONS         =    7 (   5 ACTIVE)
 NUMBER OF OCCUPIED ORBITALS      =   18
 NUMBER OF CI STATES REQUESTED    =    1
 NUMBER OF CI STARTING VECTORS    =    6
 MAX. NO. OF CI EXPANSION VECTORS =   12
 SIZE OF INITIAL CI GUESS MATRIX  =  300
 MAX. NO. OF CI ITERS/STATE       =  100
 CI DIAGONALIZATION CRITERION     = 1.00E-06
 CI PROPERTIES WILL BE FOUND FOR ROOT NUMBER   1
 1E- DENSITY MATRIX OPTIONS ARE 1

 CORRELATION ENERGY ANALYSIS      =    F

 SYMMETRIES FOR THE   2 CORE,  16 ACTIVE ARE

     CORE= A1    A1  

   ACTIVE= A1    A1    A1    B1    B2    B1    B2    A1    A1    B2  
           B1    B2    B1    A1    A1    A1  

     --------------------------------------------
     PARTIAL TWO ELECTRON INTEGRAL TRANSFORMATION
     --------------------------------------------

 NUMBER OF CORE MOLECULAR ORBITALS     =    2
 NUMBER OF OCCUPIED MOLECULAR ORBITALS =   18
 TOTAL NUMBER OF MOLECULAR ORBITALS    =   18
 TOTAL NUMBER OF ATOMIC ORBITALS       =   18
 THRESHOLD FOR KEEPING TRANSFORMED 2E- INTEGRALS = 1.000E-09

 -------------------------------     ------------------------------
 DISTRIBUTED DATA TRANSFORMATION     PROGRAM WRITTEN BY G. FLETCHER
 -------------------------------     ------------------------------

 THE DISTRIBUTED MEMORY REQUIRED FOR THIS STEP IS MEMDDI=         1 MWORDS
 CREATING DISTRIBUTED STORAGE FOR [OCC OCC|OCC OCC] INTEGRALS
 DDI: Creating Array [0] - 171 x 171 = 29241 words.
 CREATING WORKSPACE OF SIZE VVOO
 DDI: Creating Array [1] - 171 x 171 = 29241 words.
 FOR   12 PROCESSORS, THE REPLICATED MEMORY NEEDED IS       58507 WORDS.

      DIRECT 4-INDEX TRANSFORMATION 
      SCHWARZ INEQUALITY TEST SKIPPED          0 INTEGRAL BLOCKS
 ----- FROZEN CORE ENERGY =       -92.6392391717
 ... END OF INTEGRAL TRANSFORMATION ...
 CPU     0: STEP CPU TIME=     0.01 TOTAL CPU TIME=        0.0 (    0.0 MIN)
 TOTAL WALL CLOCK TIME=        0.2 SECONDS, CPU UTILIZATION IS  31.25%

     --------------------------------------------------
          AMES LABORATORY DETERMINANTAL FULL CI
     PROGRAM WRITTEN BY JOE IVANIC AND KLAUS RUEDENBERG
     --------------------------------------------------

 THE NUMBER OF DETERMINANTS HAVING SPACE SYMMETRY A1 
 IN POINT GROUP C2V  WITH SZ=  0.0 IS        4777056
 THE DETERMINANT FULL CI REQUIRES       119865995 WORDS
 INITIAL CI VECTOR GUESS TIME  :          1.5
 INITIAL FULL CI ITERATION TIME:          5.8

 ITERATION      ENERGY           GRADIENT
     0     -108.7417719269     0.45829700
     1     -108.8424810576     0.18576775
     2     -108.8548611140     0.06976253
     3     -108.8564156873     0.03040781
     4     -108.8567123341     0.01531045
     5     -108.8567841400     0.00626462
     6     -108.8567950234     0.00221659
     7     -108.8567961276     0.00142274
     8     -108.8567966345     0.00101835
     9     -108.8567971376     0.00073044
    10     -108.8567972784     0.00048154
    11     -108.8567973356     0.00029478
    12     -108.8567973537     0.00018571
    13     -108.8567973589     0.00010702
    14     -108.8567973621     0.00006847
    15     -108.8567973636     0.00005041
    16     -108.8567973644     0.00003184
    17     -108.8567973649     0.00003187
    18     -108.8567973651     0.00002843
    19     -108.8567973652     0.00002443
    20     -108.8567973655     0.00002177
    21     -108.8567973657     0.00002137
    22     -108.8567973659     0.00002159
    23     -108.8567973663     0.00003905
    24     -108.8567973672     0.00007582
    25     -108.8567973688     0.00008294
    26     -108.8567973731     0.00011473
    27     -108.8567973852     0.00024023
    28     -108.8567974525     0.00062361
    29     -108.8567994972     0.00686586
    30     -108.8568180318     0.00633688
    31     -108.8568254521     0.00459170
    32     -108.8568324931     0.00337659
    33     -108.8568357973     0.00231692
    34     -108.8568371331     0.00150270
    35     -108.8568377866     0.00105448
    36     -108.8568380290     0.00069671
    37     -108.8568381153     0.00042154
    38     -108.8568381660     0.00026259
    39     -108.8568381888     0.00021496
    40     -108.8568382010     0.00012860
    41     -108.8568382054     0.00007779
    42     -108.8568382066     0.00006303
    43     -108.8568382073     0.00004415
    44     -108.8568382080     0.00003309
    45     -108.8568382084     0.00002376
    46     -108.8568382085     0.00001434
    47     -108.8568382085     0.00001000
    48     -108.8568382086     0.00000778
    49     -108.8568382086     0.00000468
    50     -108.8568382086     0.00000302
    51     -108.8568382086     0.00000246
    52     -108.8568382086     0.00000141
    53     -108.8568382086     0.00000085

 CONVERGED STATE    1 ENERGY=     -108.8568382086 IN   53 ITERS

 ALL STATES CONVERGED.

 CI EIGENVECTORS WILL BE LABELED IN GROUP=C2V     
 PRINTING CI COEFFICIENTS LARGER THAN  0.050000

 STATE   1  ENERGY=      -108.8568382086  S=  0.00  SZ=  0.00  SPACE SYM=A1  

      ALPHA       |      BETA        | COEFFICIENT
------------------|------------------|------------
 1111100000000000 | 1111100000000000 |   0.2459741
 1110110000000000 | 1110110000000000 |  -0.2445953
 1111001000000000 | 1111001000000000 |  -0.2445953
 1110011000000000 | 1110011000000000 |   0.2432306
 1101100100000000 | 1101100100000000 |  -0.2366482
 1100110100000000 | 1100110100000000 |   0.2353598
 1101001100000000 | 1101001100000000 |   0.2353598
 1100011100000000 | 1100011100000000 |  -0.2340848
 1110101000000000 | 1111010000000000 |   0.1630596
 1111010000000000 | 1110101000000000 |   0.1630596
 1101101000000000 | 1111000100000000 |  -0.1602778
 1111000100000000 | 1101101000000000 |  -0.1602778
 1110100100000000 | 1101110000000000 |   0.1602778
 1101110000000000 | 1110100100000000 |   0.1602778
 1100111000000000 | 1110010100000000 |  -0.1593939
 1110010100000000 | 1100111000000000 |  -0.1593939
 1110001100000000 | 1101011000000000 |   0.1593939
 1101011000000000 | 1110001100000000 |   0.1593939
 1100101100000000 | 1101010100000000 |  -0.1569027
 1101010100000000 | 1100101100000000 |  -0.1569027
 1111001000000000 | 1110110000000000 |   0.0815345
 1110110000000000 | 1111001000000000 |   0.0815345
 1111100000000000 | 1110011000000000 |   0.0815251
 1110011000000000 | 1111100000000000 |   0.0815251
 1101100100000000 | 1110110000000000 |   0.0801735
 1110110000000000 | 1101100100000000 |   0.0801735
 1111001000000000 | 1101100100000000 |  -0.0801735
 1101100100000000 | 1111001000000000 |  -0.0801735
 1100110100000000 | 1111100000000000 |  -0.0801043
 1111100000000000 | 1100110100000000 |  -0.0801043
 1111100000000000 | 1101001100000000 |   0.0801043
 1101001100000000 | 1111100000000000 |   0.0801043
 1101001100000000 | 1110011000000000 |   0.0797315
 1110011000000000 | 1101001100000000 |   0.0797315
 1110011000000000 | 1100110100000000 |  -0.0797315
 1100110100000000 | 1110011000000000 |  -0.0797315
 1100011100000000 | 1111001000000000 |  -0.0796624
 1111001000000000 | 1100011100000000 |  -0.0796624
 1110110000000000 | 1100011100000000 |   0.0796624
 1100011100000000 | 1110110000000000 |   0.0796624
 1101001100000000 | 1100110100000000 |  -0.0784560
 1100110100000000 | 1101001100000000 |  -0.0784560
 1101100100000000 | 1100011100000000 |  -0.0784467
 1100011100000000 | 1101100100000000 |  -0.0784467
 ..... DONE WITH DETERMINANT CI COMPUTATION .....
 CPU     0: STEP CPU TIME=   139.10 TOTAL CPU TIME=      139.2 (    2.3 MIN)
 TOTAL WALL CLOCK TIME=      176.0 SECONDS, CPU UTILIZATION IS  79.05%

     ---------------------------
     ONE PARTICLE DENSITY MATRIX
     ---------------------------

 DENSITY MATRIX WILL BE SAVED FOR   1-TH STATE WITH S= 0.00

 CI EIGENSTATE   1 TOTAL ENERGY =     -108.8568382086

          NATURAL ORBITALS IN ATOMIC ORBITAL BASIS
          ----------------------------------------

                      1          2          3          4          5
                    2.0000     2.0000     1.9850     1.9848     1.0239
                     A1         A1         A1         A1         A1  
    1  N  1  S    0.706974   0.706978  -0.170917  -0.171142  -0.000587
    2  N  1  S   -0.000127  -0.000120   0.380987   0.382756   0.002613
    3  N  1  S    0.000913   0.000882   0.386939   0.385753   0.000031
    4  N  1  X    0.000000   0.000000   0.000000   0.000000   0.000000
    5  N  1  Y    0.000000   0.000000   0.000000   0.000000   0.000000
    6  N  1  Z    0.000105   0.000063  -0.001174   0.001165  -0.554742
    7  N  1  X    0.000000   0.000000   0.000000   0.000000   0.000000
    8  N  1  Y    0.000000   0.000000   0.000000   0.000000   0.000000
    9  N  1  Z   -0.000028  -0.000043   0.001475  -0.001639  -0.229682
   10  N  2  S    0.706974  -0.706978  -0.170917   0.171142  -0.000587
   11  N  2  S   -0.000127   0.000120   0.380987  -0.382756   0.002613
   12  N  2  S    0.000913  -0.000882   0.386939  -0.385753   0.000031
   13  N  2  X    0.000000   0.000000   0.000000   0.000000   0.000000
   14  N  2  Y    0.000000   0.000000   0.000000   0.000000   0.000000
   15  N  2  Z   -0.000105   0.000063   0.001174   0.001165   0.554742
   16  N  2  X    0.000000   0.000000   0.000000   0.000000   0.000000
   17  N  2  Y    0.000000   0.000000   0.000000   0.000000   0.000000
   18  N  2  Z    0.000028  -0.000043  -0.001475  -0.001639   0.229682

                      6          7          8          9         10
                    0.9993     0.9993     0.9917     0.9917     0.9672
                     B2         B1         B2         B1         A1  
    1  N  1  S    0.000000   0.000000   0.000000   0.000000  -0.000687
    2  N  1  S    0.000000   0.000000   0.000000   0.000000   0.002502
    3  N  1  S    0.000000   0.000000   0.000000   0.000000   0.000127
    4  N  1  X    0.000000   0.559203   0.000000  -0.560848   0.000000
    5  N  1  Y    0.559203   0.000000  -0.560848   0.000000   0.000000
    6  N  1  Z    0.000000   0.000000   0.000000   0.000000   0.565270
    7  N  1  X    0.000000   0.228264   0.000000  -0.227167   0.000000
    8  N  1  Y    0.228264   0.000000  -0.227167   0.000000   0.000000
    9  N  1  Z    0.000000   0.000000   0.000000   0.000000   0.225626
   10  N  2  S    0.000000   0.000000   0.000000   0.000000   0.000687
   11  N  2  S    0.000000   0.000000   0.000000   0.000000  -0.002502
   12  N  2  S    0.000000   0.000000   0.000000   0.000000  -0.000127
   13  N  2  X    0.000000   0.559203   0.000000   0.560848   0.000000
   14  N  2  Y    0.559203   0.000000   0.560848   0.000000   0.000000
   15  N  2  Z    0.000000   0.000000   0.000000   0.000000   0.565270
   16  N  2  X    0.000000   0.228264   0.000000   0.227167   0.000000
   17  N  2  Y    0.228264   0.000000   0.227167   0.000000   0.000000
   18  N  2  Z    0.000000   0.000000   0.000000   0.000000   0.225626

                     11         12         13         14         15
                    0.0110     0.0107     0.0064     0.0060     0.0060
                     A1         A1         A1         B2         B1  
    1  N  1  S   -0.095346  -0.095047  -0.007180   0.000000   0.000000
    2  N  1  S    1.113655   1.118497   0.103860   0.000000   0.000000
    3  N  1  S   -1.085973  -1.094675  -0.110886   0.000000   0.000000
    4  N  1  X    0.000000   0.000000   0.000000   0.000000  -0.614777
    5  N  1  Y    0.000000   0.000000   0.000000  -0.614777   0.000000
    6  N  1  Z    0.049362  -0.041947  -0.607104   0.000000   0.000000
    7  N  1  X    0.000000   0.000000   0.000000   0.000000   0.795288
    8  N  1  Y    0.000000   0.000000   0.000000   0.795288   0.000000
    9  N  1  Z   -0.053374   0.048097   0.759077   0.000000   0.000000
   10  N  2  S   -0.095346   0.095047  -0.007180   0.000000   0.000000
   11  N  2  S    1.113655  -1.118497   0.103860   0.000000   0.000000
   12  N  2  S   -1.085973   1.094675  -0.110886   0.000000   0.000000
   13  N  2  X    0.000000   0.000000   0.000000   0.000000  -0.614777
   14  N  2  Y    0.000000   0.000000   0.000000  -0.614777   0.000000
   15  N  2  Z   -0.049362  -0.041947   0.607104   0.000000   0.000000
   16  N  2  X    0.000000   0.000000   0.000000   0.000000   0.795288
   17  N  2  Y    0.000000   0.000000   0.000000   0.795288   0.000000
   18  N  2  Z    0.053374   0.048097  -0.759077   0.000000   0.000000

                     16         17         18
                    0.0058     0.0058     0.0054
                     B2         B1         A1  
    1  N  1  S    0.000000   0.000000   0.006021
    2  N  1  S    0.000000   0.000000  -0.091734
    3  N  1  S    0.000000   0.000000   0.100296
    4  N  1  X    0.000000   0.616578   0.000000
    5  N  1  Y    0.616578   0.000000   0.000000
    6  N  1  Z    0.000000   0.000000  -0.623439
    7  N  1  X    0.000000  -0.805810   0.000000
    8  N  1  Y   -0.805810   0.000000   0.000000
    9  N  1  Z    0.000000   0.000000   0.845453
   10  N  2  S    0.000000   0.000000  -0.006021
   11  N  2  S    0.000000   0.000000   0.091734
   12  N  2  S    0.000000   0.000000  -0.100296
   13  N  2  X    0.000000  -0.616578   0.000000
   14  N  2  Y   -0.616578   0.000000   0.000000
   15  N  2  Z    0.000000   0.000000  -0.623439
   16  N  2  X    0.000000   0.805810   0.000000
   17  N  2  Y    0.805810   0.000000   0.000000
   18  N  2  Z    0.000000   0.000000   0.845453
 ..... DONE WITH ONE PARTICLE DENSITY MATRIX .....
 CPU     0: STEP CPU TIME=     0.95 TOTAL CPU TIME=      140.1 (    2.3 MIN)
 TOTAL WALL CLOCK TIME=      177.0 SECONDS, CPU UTILIZATION IS  79.15%

     --------------------------------------------------------
     ALDET CI PROPERTIES...FOR THE WAVEFUNCTION OF STATE    1
               USING THE EXPECTATION VALUE DENSITY
     --------------------------------------------------------

          -----------------
          ENERGY COMPONENTS
          -----------------

         WAVEFUNCTION NORMALIZATION =       1.0000000000

                ONE ELECTRON ENERGY =    -160.6349974126
                TWO ELECTRON ENERGY =      45.2957379008
           NUCLEAR REPULSION ENERGY =       6.4824213032
                                      ------------------
                       TOTAL ENERGY =    -108.8568382086

 ELECTRON-ELECTRON POTENTIAL ENERGY =      45.2957379008
  NUCLEUS-ELECTRON POTENTIAL ENERGY =    -269.3466057944
   NUCLEUS-NUCLEUS POTENTIAL ENERGY =       6.4824213032
                                      ------------------
             TOTAL POTENTIAL ENERGY =    -217.5684465905
               TOTAL KINETIC ENERGY =     108.7116083819
                 VIRIAL RATIO (V/T) =       2.0013359183

          ---------------------------------------
          MULLIKEN AND LOWDIN POPULATION ANALYSES
          ---------------------------------------

               ----- POPULATIONS IN EACH AO -----
                             MULLIKEN      LOWDIN
              1  N  1  S      2.00012     1.99634
              2  N  1  S      0.98050     0.98290
              3  N  1  S      1.01509     1.01644
              4  N  1  X      0.75975     0.72079
              5  N  1  Y      0.75975     0.72079
              6  N  1  Z      0.75944     0.72046
              7  N  1  X      0.24166     0.28061
              8  N  1  Y      0.24166     0.28061
              9  N  1  Z      0.24204     0.28105
             10  N  2  S      2.00012     1.99634
             11  N  2  S      0.98050     0.98290
             12  N  2  S      1.01509     1.01644
             13  N  2  X      0.75975     0.72079
             14  N  2  Y      0.75975     0.72079
             15  N  2  Z      0.75944     0.72046
             16  N  2  X      0.24166     0.28061
             17  N  2  Y      0.24166     0.28061
             18  N  2  Z      0.24204     0.28105

          ----- MULLIKEN ATOMIC OVERLAP POPULATIONS -----
          (OFF-DIAGONAL ELEMENTS NEED TO BE MULTIPLIED BY 2)

             1           2

    1    6.9994804
    2    0.0005196   6.9994804

          TOTAL MULLIKEN AND LOWDIN ATOMIC POPULATIONS
       ATOM         MULL.POP.    CHARGE          LOW.POP.     CHARGE
    1 N             7.000000    0.000000         7.000000    0.000000
    2 N             7.000000    0.000000         7.000000    0.000000

          ---------------------
          ELECTROSTATIC MOMENTS
          ---------------------

 POINT   1           X           Y           Z (BOHR)    CHARGE
                 0.000000    0.000000    3.779452        0.00 (A.U.)
         DX          DY          DZ         /D/  (DEBYE)
     0.000000    0.000000   -0.000000    0.000000
 ...... END OF PROPERTY EVALUATION ......
 CPU     0: STEP CPU TIME=     0.01 TOTAL CPU TIME=      140.1 (    2.3 MIN)
 TOTAL WALL CLOCK TIME=      177.5 SECONDS, CPU UTILIZATION IS  78.94%
             119866871  WORDS OF DYNAMIC MEMORY USED
 EXECUTION OF GAMESS TERMINATED NORMALLY Thu Jan 17 18:54:36 2019
 DDI: 305760 bytes (0.3 MB / 0 MWords) used by master data server.

 ----------------------------------------
 CPU timing information for all processes
 ========================================
 0: 131.252 + 9.32 = 140.284
 1: 130.588 + 10.288 = 140.876
 2: 130.492 + 9.200 = 139.692
 3: 130.444 + 10.860 = 141.304
 4: 129.416 + 10.408 = 139.824
 5: 127.856 + 9.336 = 137.192
 6: 129.560 + 8.948 = 138.508
 7: 129.44 + 8.504 = 137.548
 8: 128.132 + 8.748 = 136.880
 9: 127.568 + 8.836 = 136.404
 10: 129.728 + 10.468 = 140.196
 11: 128.788 + 8.684 = 137.472
 12: 0.440 + 5.384 = 5.824
 13: 0.04 + 0.00 = 0.04
 14: 0.04 + 0.04 = 0.08
 15: 0.04 + 0.00 = 0.04
 16: 0.04 + 0.04 = 0.08
 17: 0.04 + 0.00 = 0.04
 18: 0.08 + 0.00 = 0.08
 19: 0.04 + 0.04 = 0.08
 20: 0.00 + 0.04 = 0.04
 21: 0.08 + 0.00 = 0.08
 22: 0.08 + 0.00 = 0.08
 23: 0.04 + 0.00 = 0.04
 ----------------------------------------
 ddikick.x: exited gracefully.
unset echo
----- accounting info -----
Files used on the master node localhost were:
-rw-rw-r-- 1 maho maho    13429 Jan 17 18:54 ./N2.SV/4.0/N2.SV.fullCI.4.0.gamess.dat
-rw------- 1 maho maho     1813 Jan 17 18:51 ./N2.SV/4.0/N2.SV.fullCI.4.0.gamess.F05
-rw-rw-r-- 1 maho maho   180016 Jan 17 18:51 ./N2.SV/4.0/N2.SV.fullCI.4.0.gamess.F08
-rw-rw-r-- 1 maho maho     1376 Jan 17 18:51 ./N2.SV/4.0/N2.SV.fullCI.4.0.gamess.F09
-rw-rw-r-- 1 maho maho  1865040 Jan 17 18:54 ./N2.SV/4.0/N2.SV.fullCI.4.0.gamess.F10
-rw-rw-r-- 1 maho maho 38216480 Jan 17 18:54 ./N2.SV/4.0/N2.SV.fullCI.4.0.gamess.F12
-rw------- 1 maho maho     1813 Jan 17 18:51 ./N2.SV/4.0/N2.SV.fullCI.4.0.gamess.inp
-rw-rw-r-- 1 maho maho    49442 Jan 17 18:54 ./N2.SV/4.0/N2.SV.fullCI.4.0.gamess.log
ls: No match.
ls: No match.
ls: No match.
Thu Jan 17 18:54:39 JST 2019
0.0u 0.0s 3:00.96 0.0% 0+0k 0+8io 0pf+0w
