----- GAMESS execution script 'rungms' -----
This job is running on host bach.ad64.riken.go.jp
under operating system Darwin at 2019年 1月17日 木曜日 17時46分46秒 JST
Available scratch disk space (Kbyte units) at beginning of the job is
Filesystem   1024-blocks       Used Available Capacity iused      ifree %iused  Mounted on
/dev/disk2s2  1953178672 1144738984 808439688    59%  984174 4293983105    0%   /Volumes/Users
GAMESS temporary binary files will be written to ./
GAMESS supplementary output files will be written to ./
Copying input file LiH.631g/2.0/LiH.631g.fullCI.2.0.gamess.inp to your run's scratch directory...
cp LiH.631g/2.0/LiH.631g.fullCI.2.0.gamess.inp .//LiH.631g/2.0/LiH.631g.fullCI.2.0.gamess.F05
unset echo
/Volumes/Users/maho/bin/gamess//ddikick.x /Volumes/Users/maho/bin/gamess//gamess.00.x LiH.631g/2.0/LiH.631g.fullCI.2.0.gamess -ddi 1 1 bach.ad64.riken.go.jp -scr ./

 Distributed Data Interface kickoff program.
 Initiating 1 compute processes on 1 nodes to run the following command:
 /Volumes/Users/maho/bin/gamess//gamess.00.x LiH.631g/2.0/LiH.631g.fullCI.2.0.gamess 

          ******************************************************
          *         GAMESS VERSION = 18 AUG 2016 (R1)          *
          *             FROM IOWA STATE UNIVERSITY             *
          * M.W.SCHMIDT, K.K.BALDRIDGE, J.A.BOATZ, S.T.ELBERT, *
          *   M.S.GORDON, J.H.JENSEN, S.KOSEKI, N.MATSUNAGA,   *
          *          K.A.NGUYEN, S.J.SU, T.L.WINDUS,           *
          *       TOGETHER WITH M.DUPUIS, J.A.MONTGOMERY       *
          *         J.COMPUT.CHEM.  14, 1347-1363(1993)        *
          **************** 64 BIT APPLE VERSION ****************

  SINCE 1993, STUDENTS AND POSTDOCS WORKING AT IOWA STATE UNIVERSITY
  AND ALSO IN THEIR VARIOUS JOBS AFTER LEAVING ISU HAVE MADE IMPORTANT
  CONTRIBUTIONS TO THE CODE:
     IVANA ADAMOVIC, CHRISTINE AIKENS, YURI ALEXEEV, POOJA ARORA,
     ANDREY ASADCHEV, ROB BELL, PRADIPTA BANDYOPADHYAY, JONATHAN BENTZ,
     BRETT BODE, KURT BRORSEN, CALEB CARLIN, GALINA CHABAN, WEI CHEN,
     CHEOL HO CHOI, PAUL DAY, ALBERT DEFUSCO, NUWAN DESILVA, TIM DUDLEY,
     DMITRI FEDOROV, GRAHAM FLETCHER, MARK FREITAG, KURT GLAESEMANN,
     DAN KEMP, GRANT MERRILL, NORIYUKI MINEZAWA, JONATHAN MULLIN,
     TAKESHI NAGATA, SEAN NEDD, HEATHER NETZLOFF, BOSILJKA NJEGIC, RYAN OLSON,
     MIKE PAK, SPENCER PRUITT, LUKE ROSKOP, JIM SHOEMAKER, LYUDMILA SLIPCHENKO,
     TONY SMITH, SAROM SOK LEANG, JIE SONG, TETSUYA TAKETSUGU, SIMON WEBB,
     PENG XU, SOOHAENG YOO, FEDERICO ZAHARIEV

  ADDITIONAL CODE HAS BEEN PROVIDED BY COLLABORATORS IN OTHER GROUPS:
     IOWA STATE UNIVERSITY:
          JOE IVANIC, AARON WEST, LAIMUTIS BYTAUTAS, KLAUS RUEDENBERG
     UNIVERSITY OF TOKYO: KIMIHIKO HIRAO, TAKAHITO NAKAJIMA,
          TAKAO TSUNEDA, MUNEAKI KAMIYA, SUSUMU YANAGISAWA,
          KIYOSHI YAGI, MAHITO CHIBA, SEIKEN TOKURA, NAOAKI KAWAKAMI
     UNIVERSITY OF AARHUS: FRANK JENSEN
     UNIVERSITY OF IOWA: VISVALDAS KAIRYS, HUI LI
     NATIONAL INST. OF STANDARDS AND TECHNOLOGY: WALT STEVENS, DAVID GARMER
     UNIVERSITY OF PISA: BENEDETTA MENNUCCI, JACOPO TOMASI
     UNIVERSITY OF MEMPHIS: HENRY KURTZ, PRAKASHAN KORAMBATH
     UNIVERSITY OF ALBERTA: TOBY ZENG, MARIUSZ KLOBUKOWSKI
     UNIVERSITY OF NEW ENGLAND: MARK SPACKMAN
     MIE UNIVERSITY: HIROAKI UMEDA
     NAT. INST. OF ADVANCED INDUSTRIAL SCIENCE AND TECHNOLOGY: KAZUO KITAURA
     MICHIGAN STATE UNIVERSITY:
          KAROL KOWALSKI, MARTA WLOCH, JEFFREY GOUR, JESSE LUTZ,
          WEI LI, PIOTR PIECUCH
     UNIVERSITY OF SILESIA: MONIKA MUSIAL, STANISLAW KUCHARSKI
     FACULTES UNIVERSITAIRES NOTRE-DAME DE LA PAIX:
          OLIVIER QUINET, BENOIT CHAMPAGNE
     UNIVERSITY OF CALIFORNIA - SANTA BARBARA: BERNARD KIRTMAN
     INSTITUTE FOR MOLECULAR SCIENCE:
          KAZUYA ISHIMURA, MICHIO KATOUDA, AND SHIGERU NAGASE
     UNIVERSITY OF NOTRE DAME: ANNA POMOGAEVA, DAN CHIPMAN
     KYUSHU UNIVERSITY:
          HARUYUKI NAKANO,
          FENG LONG GU, JACEK KORCHOWIEC, MARCIN MAKOWSKI, AND YURIKO AOKI,
          HIROTOSHI MORI AND EISAKU MIYOSHI
     PENNSYLVANIA STATE UNIVERSITY:
          TZVETELIN IORDANOV, CHET SWALINA, JONATHAN SKONE,
          SHARON HAMMES-SCHIFFER
     WASEDA UNIVERSITY:
          MASATO KOBAYASHI, TOMOKO AKAMA, TSUGUKI TOUMA,
          TAKESHI YOSHIKAWA, YASUHIRO IKABATA, JUNJI SEINO,
          YUYA NAKAJIMA, HIROMI NAKAI
     NANJING UNIVERSITY: SHUHUA LI
     UNIVERSITY OF NEBRASKA:
          PEIFENG SU, DEJUN SI, NANDUN THELLAMUREGE, YALI WANG, HUI LI
     UNIVERSITY OF ZURICH: ROBERTO PEVERATI, KIM BALDRIDGE
     N. COPERNICUS UNIVERSITY AND JACKSON STATE UNIVERSITY:
          MARIA BARYSZ
     UNIVERSITY OF COPENHAGEN: Jimmy Kromann, CASPER STEINMANN
     TOKYO INSTITUTE OF TECHNOLOGY: HIROYA NAKATA
     NAGOYA UNIVERSITY: YOSHIO NISHIMOTO, STEPHAN IRLE
     MOSCOW STATE UNIVERSITY: VLADIMIR MIRONOV

 EXECUTION OF GAMESS BEGUN Thu Jan 17 17:46:46 2019

            ECHO OF THE FIRST FEW INPUT CARDS -
 INPUT CARD> $CONTRL SCFTYP=RHF CITYP=ALDET $END                                            
 INPUT CARD> $GUESS  GUESS=HUCKEL $END                                                      
 INPUT CARD> $BASIS GBASIS=N31 NGAUSS=6 NDFUNC=1 NPFUNC=1 $END                              
 INPUT CARD> $CIDET SZ=0 GROUP=C2V NCORE=0 NACT=20 NELS=4 $END                              
 INPUT CARD> $DATA                                                                          
 INPUT CARD>LiH...HF...6-31G* basis                                                         
 INPUT CARD>Cnv   2                                                                         
 INPUT CARD>                                                                                
 INPUT CARD>Li    3.0    0.0      0.0     0.0                                               
 INPUT CARD>H     1.0    0.0      0.0     2.0                                               
 INPUT CARD> $END                                                                           
    1000000 WORDS OF MEMORY AVAILABLE

     BASIS OPTIONS
     -------------
     GBASIS=N31          IGAUSS=       6      POLAR=POPN31  
     NDFUNC=       1     NFFUNC=       0     DIFFSP=       F
     NPFUNC=       1      DIFFS=       F     BASNAM=        


     RUN TITLE
     ---------
 LiH...HF...6-31G* basis                                                         

 THE POINT GROUP OF THE MOLECULE IS CNV     
 THE ORDER OF THE PRINCIPAL AXIS IS     2

 ATOM      ATOMIC                      COORDINATES (BOHR)
           CHARGE         X                   Y                   Z
 LI          3.0     0.0000000000        0.0000000000        0.0000000000
 H           1.0     0.0000000000        0.0000000000        3.7794519754

          INTERNUCLEAR DISTANCES (ANGS.)
          ------------------------------

                1 LI         2 H     

   1 LI      0.0000000    2.0000000 *
   2 H       2.0000000 *  0.0000000  

  * ... LESS THAN  3.000


     ATOMIC BASIS SET
     ----------------
 THE CONTRACTED PRIMITIVE FUNCTIONS HAVE BEEN UNNORMALIZED
 THE CONTRACTED BASIS FUNCTIONS ARE NOW NORMALIZED TO UNITY

  SHELL TYPE  PRIMITIVE        EXPONENT          CONTRACTION COEFFICIENT(S)

 LI        

      1   S       1           642.4189150    0.002142607810
      1   S       2            96.7985153    0.016208871501
      1   S       3            22.0911212    0.077315572504
      1   S       4             6.2010702    0.245786052013
      1   S       5             1.9351177    0.470189004025
      1   S       6             0.6367358    0.345470845019

      2   L       7             2.3249184   -0.035091745735    0.008941508043
      2   L       8             0.6324304   -0.191232843103    0.141009464046
      2   L       9             0.0790534    1.083987794916    0.945363695309

      3   L      10             0.0359620    1.000000000000    1.000000000000

      4   D      11             0.2000000    1.000000000000

 H         

      5   S      12            18.7311370    0.033494604338
      5   S      13             2.8253944    0.234726953484
      5   S      14             0.6401217    0.813757326146

      6   S      15             0.1612778    1.000000000000

      7   P      16             1.1000000    1.000000000000

 TOTAL NUMBER OF BASIS SET SHELLS             =    7
 NUMBER OF CARTESIAN GAUSSIAN BASIS FUNCTIONS =   20
 NUMBER OF ELECTRONS                          =    4
 CHARGE OF MOLECULE                           =    0
 SPIN MULTIPLICITY                            =    1
 NUMBER OF OCCUPIED ORBITALS (ALPHA)          =    2
 NUMBER OF OCCUPIED ORBITALS (BETA )          =    2
 TOTAL NUMBER OF ATOMS                        =    2
 THE NUCLEAR REPULSION ENERGY IS        0.7937658739

 THIS MOLECULE IS RECOGNIZED AS BEING LINEAR,
 ORBITAL LZ DEGENERACY TOLERANCE ETOLLZ= 1.00E-06

     $CONTRL OPTIONS
     ---------------
 SCFTYP=RHF          RUNTYP=ENERGY       EXETYP=RUN     
 MPLEVL=       0     CITYP =ALDET        CCTYP =NONE         VBTYP =NONE    
 DFTTYP=NONE         TDDFT =NONE    
 MULT  =       1     ICHARG=       0     NZVAR =       0     COORD =UNIQUE  
 PP    =NONE         RELWFN=NONE         LOCAL =NONE         NUMGRD=       F
 ISPHER=      -1     NOSYM =       0     MAXIT =      30     UNITS =ANGS    
 PLTORB=       F     MOLPLT=       F     AIMPAC=       F     FRIEND=        
 NPRINT=       7     IREST =       0     GEOM  =INPUT   
 NORMF =       0     NORMP =       0     ITOL  =      20     ICUT  =       9
 INTTYP=BEST         GRDTYP=BEST         QMTTOL= 1.0E-06

     $SYSTEM OPTIONS
     ---------------
  REPLICATED MEMORY=     1000000 WORDS (ON EVERY NODE).
 DISTRIBUTED MEMDDI=           0 MILLION WORDS IN AGGREGATE,
 MEMDDI DISTRIBUTED OVER   1 PROCESSORS IS           0 WORDS/PROCESSOR.
 TOTAL MEMORY REQUESTED ON EACH PROCESSOR=     1000000 WORDS.
 TIMLIM=      525600.00 MINUTES, OR     365.0 DAYS.
 PARALL= F  BALTYP=  DLB     KDIAG=    0  COREFL= F
 MXSEQ2=     300 MXSEQ3=     150  mem10=         0

          ----------------
          PROPERTIES INPUT
          ----------------

     MOMENTS            FIELD           POTENTIAL          DENSITY
 IEMOM =       1   IEFLD =       0   IEPOT =       0   IEDEN =       0
 WHERE =COMASS     WHERE =NUCLEI     WHERE =NUCLEI     WHERE =NUCLEI  
 OUTPUT=BOTH       OUTPUT=BOTH       OUTPUT=BOTH       OUTPUT=BOTH    
 IEMINT=       0   IEFINT=       0                     IEDINT=       0
                                                       MORB  =       0
          EXTRAPOLATION IN EFFECT
          SOSCF IN EFFECT
 ORBITAL PRINTING OPTION: NPREO=     1    20     2     1

     -------------------------------
     INTEGRAL TRANSFORMATION OPTIONS
     -------------------------------
     NWORD  =            0
     CUTOFF = 1.0E-09     MPTRAN =       0
     DIRTRF =       F     AOINTS =DUP     

          ----------------------
          INTEGRAL INPUT OPTIONS
          ----------------------
 NOPK  =       1 NORDER=       0 SCHWRZ=       F

     ------------------------------------------
     THE POINT GROUP IS CNV, NAXIS= 2, ORDER= 4
     ------------------------------------------

     DIMENSIONS OF THE SYMMETRY SUBSPACES ARE
 A1  =   11     A2  =    1     B1  =    4     B2  =    4

 ..... DONE SETTING UP THE RUN .....
 STEP CPU TIME =     0.01 TOTAL CPU TIME =        0.0 (    0.0 MIN)
 TOTAL WALL CLOCK TIME=        0.0 SECONDS, CPU UTILIZATION IS  50.00%

          ********************
          1 ELECTRON INTEGRALS
          ********************
 ...... END OF ONE-ELECTRON INTEGRALS ......
 STEP CPU TIME =     0.00 TOTAL CPU TIME =        0.0 (    0.0 MIN)
 TOTAL WALL CLOCK TIME=        0.0 SECONDS, CPU UTILIZATION IS  50.00%

          -------------
          GUESS OPTIONS
          -------------
          GUESS =HUCKEL            NORB  =       0          NORDER=       0
          MIX   =       F          PRTMO =       F          PUNMO =       F
          TOLZ  = 1.0E-08          TOLE  = 1.0E-05
          SYMDEN=       F          PURIFY=       F

 INITIAL GUESS ORBITALS GENERATED BY HUCKEL   ROUTINE.
 HUCKEL GUESS REQUIRES      4469 WORDS.

 SYMMETRIES FOR INITIAL GUESS ORBITALS FOLLOW.   BOTH SET(S).
     2 ORBITALS ARE OCCUPIED (    1 CORE ORBITALS).
     2=A1       3=A1       4=A1       5=A1       6=A1       7=A1       8=A1  
     9=A1      10=A1      11=A1      12=A2  
 ...... END OF INITIAL ORBITAL SELECTION ......
 STEP CPU TIME =     0.00 TOTAL CPU TIME =        0.0 (    0.0 MIN)
 TOTAL WALL CLOCK TIME=        0.0 SECONDS, CPU UTILIZATION IS  50.00%

                    ----------------------
                    AO INTEGRAL TECHNOLOGY
                    ----------------------
     S,P,L SHELL ROTATED AXIS INTEGRALS, REPROGRAMMED BY
        KAZUYA ISHIMURA (IMS) AND JOSE SIERRA (SYNSTAR).
     S,P,D,L SHELL ROTATED AXIS INTEGRALS PROGRAMMED BY
        KAZUYA ISHIMURA (INSTITUTE FOR MOLECULAR SCIENCE).
     S,P,D,F,G SHELL TO TOTAL QUARTET ANGULAR MOMENTUM SUM 5,
        ERIC PROGRAM BY GRAHAM FLETCHER (ELORET AND NASA ADVANCED
        SUPERCOMPUTING DIVISION, AMES RESEARCH CENTER).
     S,P,D,F,G,L SHELL GENERAL RYS QUADRATURE PROGRAMMED BY
        MICHEL DUPUIS (PACIFIC NORTHWEST NATIONAL LABORATORY).

          --------------------
          2 ELECTRON INTEGRALS
          --------------------

 THE -PK- OPTION IS OFF, THE INTEGRALS ARE NOT IN SUPERMATRIX FORM.
 STORING   15000 INTEGRALS/RECORD ON DISK, USING 12 BYTES/INTEGRAL.
 TWO ELECTRON INTEGRAL EVALUATION REQUIRES   90424 WORDS OF MEMORY.
 II,JST,KST,LST =  1  1  1  1 NREC =         1 INTLOC =    1
 II,JST,KST,LST =  2  1  1  1 NREC =         1 INTLOC =    2
 II,JST,KST,LST =  3  1  1  1 NREC =         1 INTLOC =   34
 II,JST,KST,LST =  4  1  1  1 NREC =         1 INTLOC =  214
 II,JST,KST,LST =  5  1  1  1 NREC =         1 INTLOC = 1189
 II,JST,KST,LST =  6  1  1  1 NREC =         1 INTLOC = 1867
 II,JST,KST,LST =  7  1  1  1 NREC =         1 INTLOC = 2713
 TOTAL NUMBER OF NONZERO TWO-ELECTRON INTEGRALS =                5596
          1 INTEGRAL RECORDS WERE STORED ON DISK FILE  8.
  ...... END OF TWO-ELECTRON INTEGRALS .....
 STEP CPU TIME =     0.02 TOTAL CPU TIME =        0.0 (    0.0 MIN)
 TOTAL WALL CLOCK TIME=        0.0 SECONDS, CPU UTILIZATION IS  75.00%

          --------------------------
                 RHF SCF CALCULATION
          --------------------------

     NUCLEAR ENERGY =         0.7937658739
     MAXIT =   30     NPUNCH=    2
     EXTRAP=T  DAMP=F  SHIFT=F  RSTRCT=F  DIIS=F  DEM=F  SOSCF=T
     DENSITY MATRIX CONV=  1.00E-06
     SOSCF WILL OPTIMIZE      36 ORBITAL ROTATIONS, SOGTOL=   0.250
     MEMORY REQUIRED FOR RHF ITERS=     33224 WORDS.

 ITER EX DEM     TOTAL ENERGY        E CHANGE  DENSITY CHANGE     ORB. GRAD
   1  0  0       -7.8313690260    -7.8313690260   0.398617899   0.000000000
          ---------------START SECOND ORDER SCF---------------
   2  1  0       -7.9625760968    -0.1312070708   0.062048924   0.022189878
   3  2  0       -7.9694620968    -0.0068860000   0.020323668   0.007526359
   4  3  0       -7.9700006046    -0.0005385077   0.002372403   0.000779130
   5  4  0       -7.9700074626    -0.0000068580   0.000294470   0.000192342
   6  5  0       -7.9700075879    -0.0000001253   0.000053408   0.000012879
   7  6  0       -7.9700075884    -0.0000000006   0.000011357   0.000001553
   8  7  0       -7.9700075884    -0.0000000000   0.000000164   0.000000046
   9  8  0       -7.9700075884    -0.0000000000   0.000000000   0.000000007

          -----------------
          DENSITY CONVERGED
          -----------------
     TIME TO FORM FOCK OPERATORS=       0.0 SECONDS (       0.0 SEC/ITER)
     TIME TO SOLVE SCF EQUATIONS=       0.0 SECONDS (       0.0 SEC/ITER)

 FINAL RHF ENERGY IS       -7.9700075884 AFTER   9 ITERATIONS

 LZ VALUE ANALYSIS FOR THE MOS
 ----------------------------------------
 MO     1 (    1) HAS LZ(WEIGHT)= 0.00(100.0%) 
 MO     2 (    2) HAS LZ(WEIGHT)= 0.00(100.0%) 
 MO     3 (    3) HAS LZ(WEIGHT)= 0.00(100.0%) 
 MO     4 (    4) HAS LZ(WEIGHT)=-1.00( 50.0%)  1.00( 50.0%) 
 MO     5 (    4) HAS LZ(WEIGHT)=-1.00( 50.0%)  1.00( 50.0%) 
 MO     6 (    5) HAS LZ(WEIGHT)= 0.00(100.0%) 
 MO     7 (    6) HAS LZ(WEIGHT)= 0.00(100.0%) 
 MO     8 (    7) HAS LZ(WEIGHT)=-1.00( 50.0%)  1.00( 50.0%) 
 MO     9 (    7) HAS LZ(WEIGHT)=-1.00( 50.0%)  1.00( 50.0%) 
 MO    10 (    8) HAS LZ(WEIGHT)= 0.00(100.0%) 
 MO    11 (    9) HAS LZ(WEIGHT)=-2.00( 50.0%)  2.00( 50.0%) 
 MO    12 (    9) HAS LZ(WEIGHT)=-2.00( 50.0%)  2.00( 50.0%) 
 MO    13 (   10) HAS LZ(WEIGHT)=-1.00( 50.0%)  1.00( 50.0%) 
 MO    14 (   10) HAS LZ(WEIGHT)=-1.00( 50.0%)  1.00( 50.0%) 
 MO    15 (   11) HAS LZ(WEIGHT)= 0.00(100.0%) 
 MO    16 (   12) HAS LZ(WEIGHT)= 0.00(100.0%) 
 MO    17 (   13) HAS LZ(WEIGHT)= 0.00(100.0%) 
 MO    18 (   14) HAS LZ(WEIGHT)=-1.00( 50.0%)  1.00( 50.0%) 
 MO    19 (   14) HAS LZ(WEIGHT)=-1.00( 50.0%)  1.00( 50.0%) 
 MO    20 (   15) HAS LZ(WEIGHT)= 0.00(100.0%) 

          ------------
          EIGENVECTORS
          ------------

                      1          2          3          4          5
                   -2.4817    -0.2772    -0.0006     0.0548     0.0548
                     A1         A1         A1         B2         B1  
    1  LI 1  S    0.998659  -0.103218  -0.147027  -0.000000  -0.000000
    2  LI 1  S   -0.010469   0.131633  -0.310677  -0.000000  -0.000000
    3  LI 1  X    0.000000  -0.000000  -0.000000  -0.000000   0.049187
    4  LI 1  Y    0.000000  -0.000000  -0.000000   0.049187  -0.000000
    5  LI 1  Z   -0.008759   0.182044  -0.178504  -0.000000  -0.000000
    6  LI 1  S    0.000212   0.236386   0.920206  -0.000000  -0.000000
    7  LI 1  X    0.000000  -0.000000  -0.000000  -0.000000   0.959448
    8  LI 1  Y    0.000000  -0.000000  -0.000000   0.959448  -0.000000
    9  LI 1  Z    0.004712   0.060731  -0.493124  -0.000000  -0.000000
   10  LI 1 XX    0.008997   0.001856   0.064894  -0.000000  -0.000000
   11  LI 1 YY    0.008997   0.001856   0.064894  -0.000000  -0.000000
   12  LI 1 ZZ    0.007461   0.041661   0.074712  -0.000000  -0.000000
   13  LI 1 XY    0.000000  -0.000000  -0.000000  -0.000000  -0.000000
   14  LI 1 XZ    0.000000  -0.000000  -0.000000  -0.000000  -0.032066
   15  LI 1 YZ    0.000000  -0.000000  -0.000000  -0.032066  -0.000000
   16  H  2  S    0.000565   0.269233  -0.061475  -0.000000  -0.000000
   17  H  2  S    0.003249   0.447822  -0.068609  -0.000000  -0.000000
   18  H  2  X    0.000000  -0.000000  -0.000000  -0.000000   0.003553
   19  H  2  Y    0.000000  -0.000000  -0.000000   0.003553  -0.000000
   20  H  2  Z   -0.000640  -0.005926   0.000796  -0.000000  -0.000000

                      6          7          8          9         10
                    0.1483     0.1886     0.2118     0.2118     0.2804
                     A1         A1         B1         B2         A1  
    1  LI 1  S   -0.070431   0.078454   0.000000   0.000000  -0.005346
    2  LI 1  S    0.112401   2.890645   0.000000   0.000000   1.497600
    3  LI 1  X   -0.000000   0.000000   1.668597   0.000000   0.000000
    4  LI 1  Y   -0.000000   0.000000   0.000000   1.668597   0.000000
    5  LI 1  Z   -0.719513  -0.727750   0.000000   0.000000   1.407081
    6  LI 1  S    0.474943  -2.381984   0.000000   0.000000  -0.697946
    7  LI 1  X   -0.000000   0.000000  -1.370284   0.000000   0.000000
    8  LI 1  Y   -0.000000   0.000000   0.000000  -1.370284   0.000000
    9  LI 1  Z    1.444550   0.264990   0.000000   0.000000  -0.661179
   10  LI 1 XX    0.019011  -0.299324   0.000000   0.000000  -0.026066
   11  LI 1 YY    0.019011  -0.299324   0.000000   0.000000  -0.026066
   12  LI 1 ZZ    0.030635  -0.249488   0.000000   0.000000  -0.257783
   13  LI 1 XY   -0.000000   0.000000   0.000000   0.000000   0.000000
   14  LI 1 XZ   -0.000000   0.000000  -0.075402   0.000000   0.000000
   15  LI 1 YZ   -0.000000   0.000000   0.000000  -0.075402   0.000000
   16  H  2  S   -0.093072   0.029280   0.000000   0.000000  -0.087457
   17  H  2  S   -0.667949   0.322651   0.000000   0.000000  -0.776730
   18  H  2  X   -0.000000   0.000000   0.002930   0.000000   0.000000
   19  H  2  Y   -0.000000   0.000000   0.000000   0.002930   0.000000
   20  H  2  Z    0.004664  -0.003723   0.000000   0.000000  -0.019312

                     11         12         13         14         15
                    0.5650     0.5650     0.5679     0.5679     0.6939
                     A2         A1         B1         B2         A1  
    1  LI 1  S    0.000000   0.000000  -0.000000  -0.000000  -0.015551
    2  LI 1  S    0.000000   0.000000  -0.000000  -0.000000  -0.194029
    3  LI 1  X    0.000000   0.000000   0.125360  -0.000000   0.000000
    4  LI 1  Y    0.000000   0.000000  -0.000000   0.125360   0.000000
    5  LI 1  Z    0.000000   0.000000  -0.000000  -0.000000   0.697918
    6  LI 1  S    0.000000   0.000000  -0.000000  -0.000000   0.402983
    7  LI 1  X    0.000000   0.000000  -0.072470  -0.000000   0.000000
    8  LI 1  Y    0.000000   0.000000  -0.000000  -0.072470   0.000000
    9  LI 1  Z    0.000000   0.000000  -0.000000  -0.000000   0.043845
   10  LI 1 XX    0.000000  -0.866025  -0.000000  -0.000000  -0.429577
   11  LI 1 YY    0.000000   0.866025  -0.000000  -0.000000  -0.429577
   12  LI 1 ZZ    0.000000   0.000000  -0.000000  -0.000000   1.342203
   13  LI 1 XY    1.000000   0.000000  -0.000000  -0.000000   0.000000
   14  LI 1 XZ    0.000000   0.000000   0.993357  -0.000000   0.000000
   15  LI 1 YZ    0.000000   0.000000  -0.000000   0.993357   0.000000
   16  H  2  S    0.000000   0.000000  -0.000000  -0.000000   0.054024
   17  H  2  S    0.000000   0.000000  -0.000000  -0.000000  -1.183468
   18  H  2  X    0.000000   0.000000   0.026453  -0.000000   0.000000
   19  H  2  Y    0.000000   0.000000  -0.000000   0.026453   0.000000
   20  H  2  Z    0.000000   0.000000  -0.000000  -0.000000  -0.017342

                     16         17         18         19         20
                    1.1799     1.3166     2.4987     2.4987     2.7209
                     A1         A1         B1         B2         A1  
    1  LI 1  S    0.085772   0.077987  -0.000000  -0.000000  -0.012719
    2  LI 1  S    8.282527   4.641150  -0.000000  -0.000000  -0.586424
    3  LI 1  X    0.000000  -0.000000  -0.074369  -0.000000  -0.000000
    4  LI 1  Y    0.000000  -0.000000  -0.000000  -0.074369  -0.000000
    5  LI 1  Z    0.012707   0.224917  -0.000000  -0.000000   0.469390
    6  LI 1  S   -2.651239  -1.101716  -0.000000  -0.000000   0.244021
    7  LI 1  X    0.000000  -0.000000   0.010981  -0.000000  -0.000000
    8  LI 1  Y    0.000000  -0.000000  -0.000000   0.010981  -0.000000
    9  LI 1  Z   -0.090321   0.226363  -0.000000  -0.000000  -0.114692
   10  LI 1 XX   -2.809494  -1.532267  -0.000000  -0.000000   0.122772
   11  LI 1 YY   -2.809494  -1.532267  -0.000000  -0.000000   0.122772
   12  LI 1 ZZ   -2.654304  -1.479124  -0.000000  -0.000000   0.679512
   13  LI 1 XY    0.000000  -0.000000  -0.000000  -0.000000  -0.000000
   14  LI 1 XZ    0.000000  -0.000000  -0.139512  -0.000000  -0.000000
   15  LI 1 YZ    0.000000  -0.000000  -0.000000  -0.139512  -0.000000
   16  H  2  S   -0.578661   1.249628  -0.000000  -0.000000   0.086319
   17  H  2  S    0.490242  -1.466706  -0.000000  -0.000000  -0.540219
   18  H  2  X    0.000000  -0.000000   1.007843  -0.000000  -0.000000
   19  H  2  Y    0.000000  -0.000000  -0.000000   1.007843  -0.000000
   20  H  2  Z   -0.000130  -0.029180  -0.000000  -0.000000   1.065710
 ...... END OF RHF CALCULATION ......
 STEP CPU TIME =     0.01 TOTAL CPU TIME =        0.0 (    0.0 MIN)
 TOTAL WALL CLOCK TIME=        0.1 SECONDS, CPU UTILIZATION IS  30.77%

     ----------------------------------------------------------------
     PROPERTY VALUES FOR THE RHF   SELF-CONSISTENT FIELD WAVEFUNCTION
     ----------------------------------------------------------------

          -----------------
          ENERGY COMPONENTS
          -----------------

         WAVEFUNCTION NORMALIZATION =       1.0000000000

                ONE ELECTRON ENERGY =     -12.0098229691
                TWO ELECTRON ENERGY =       3.2460495068
           NUCLEAR REPULSION ENERGY =       0.7937658739
                                      ------------------
                       TOTAL ENERGY =      -7.9700075884

 ELECTRON-ELECTRON POTENTIAL ENERGY =       3.2460495068
  NUCLEUS-ELECTRON POTENTIAL ENERGY =     -19.8999675073
   NUCLEUS-NUCLEUS POTENTIAL ENERGY =       0.7937658739
                                      ------------------
             TOTAL POTENTIAL ENERGY =     -15.8601521267
               TOTAL KINETIC ENERGY =       7.8901445382
                 VIRIAL RATIO (V/T) =       2.0101218742

  ...... PI ENERGY ANALYSIS ......

 ENERGY ANALYSIS:
            FOCK ENERGY=     -5.5177239683
          BARE H ENERGY=    -12.0098229691
     ELECTRONIC ENERGY =     -8.7637734687
         KINETIC ENERGY=      7.8901445382
          N-N REPULSION=      0.7937658739
           TOTAL ENERGY=     -7.9700075948
        SIGMA PART(1+2)=     -8.7637734687
               (K,V1,2)=      7.8901445382    -19.8999675073      3.2460495004
           PI PART(1+2)=      0.0000000000
               (K,V1,2)=      0.0000000000      0.0000000000      0.0000000000
  SIGMA SKELETON, ERROR=     -7.9700075948      0.0000000000
             MIXED PART= 0.00000E+00 0.00000E+00 0.00000E+00 0.00000E+00
 ...... END OF PI ENERGY ANALYSIS ......

          ---------------------------------------
          MULLIKEN AND LOWDIN POPULATION ANALYSES
          ---------------------------------------

               ----- POPULATIONS IN EACH AO -----
                             MULLIKEN      LOWDIN
              1  LI 1  S      1.99821     1.98240
              2  LI 1  S      0.15673     0.16185
              3  LI 1  X      0.00000     0.00000
              4  LI 1  Y      0.00000     0.00000
              5  LI 1  Z      0.21043     0.21816
              6  LI 1  S      0.28752     0.23747
              7  LI 1  X      0.00000     0.00000
              8  LI 1  Y      0.00000     0.00000
              9  LI 1  Z      0.06092     0.11971
             10  LI 1 XX      0.00314     0.02981
             11  LI 1 YY      0.00314     0.02981
             12  LI 1 ZZ      0.05176     0.14737
             13  LI 1 XY      0.00000     0.00000
             14  LI 1 XZ      0.00000     0.00000
             15  LI 1 YZ      0.00000     0.00000
             16  H  2  S      0.38097     0.38809
             17  H  2  S      0.84666     0.68513
             18  H  2  X      0.00000     0.00000
             19  H  2  Y      0.00000     0.00000
             20  H  2  Z      0.00051     0.00020

          ----- MULLIKEN ATOMIC OVERLAP POPULATIONS -----
          (OFF-DIAGONAL ELEMENTS NEED TO BE MULTIPLIED BY 2)

             1           2

    1    2.4073454
    2    0.3645091   0.8636363

          TOTAL MULLIKEN AND LOWDIN ATOMIC POPULATIONS
       ATOM         MULL.POP.    CHARGE          LOW.POP.     CHARGE
    1 LI            2.771855    0.228145         2.926579    0.073421
    2 H             1.228145   -0.228145         1.073421   -0.073421

          ---------------------
          ELECTROSTATIC MOMENTS
          ---------------------

 POINT   1           X           Y           Z (BOHR)    CHARGE
                 0.000000    0.000000    0.474715        0.00 (A.U.)
         DX          DY          DZ         /D/  (DEBYE)
     0.000000    0.000000   -6.766770    6.766770
 ...... END OF PROPERTY EVALUATION ......
 STEP CPU TIME =     0.00 TOTAL CPU TIME =        0.0 (    0.0 MIN)
 TOTAL WALL CLOCK TIME=        0.1 SECONDS, CPU UTILIZATION IS  30.77%

 DETERMINANT CI OPTIONS   NRNFG   NPFLG
 INTEGRAL TRANSFORMATION    1       0
 DIAGONALIZE HAMILTONIAN    1       0
 FORM 1E- DENSITY MATRIX    1       0
 FORM 2E- DENSITY MATRIX    0       0

     --------------------------------------------------
          AMES LABORATORY DETERMINANTAL FULL CI
     PROGRAM WRITTEN BY JOE IVANIC AND KLAUS RUEDENBERG
     --------------------------------------------------

 THE POINT GROUP                  =   C2V     
 THE STATE SYMMETRY               =   A1      
 NUMBER OF CORE ORBITALS          =    0
 NUMBER OF ACTIVE ORBITALS        =   20
 NUMBER OF ALPHA ELECTRONS        =    2 (   2 ACTIVE)
 NUMBER OF BETA ELECTRONS         =    2 (   2 ACTIVE)
 NUMBER OF OCCUPIED ORBITALS      =   20
 NUMBER OF CI STATES REQUESTED    =    1
 NUMBER OF CI STARTING VECTORS    =    1
 MAX. NO. OF CI EXPANSION VECTORS =   10
 SIZE OF INITIAL CI GUESS MATRIX  =  300
 MAX. NO. OF CI ITERS/STATE       =  100
 CI DIAGONALIZATION CRITERION     = 1.00E-06
 CI PROPERTIES WILL BE FOUND FOR ROOT NUMBER   1
 1E- DENSITY MATRIX OPTIONS ARE 1

 CORRELATION ENERGY ANALYSIS      =    F

 SYMMETRIES FOR THE   0 CORE,  20 ACTIVE ARE

   ACTIVE= A1    A1    A1    B2    B1    A1    A1    B1    B2    A1  
           A2    A1    B1    B2    A1    A1    A1    B1    B2    A1  

     --------------------------------------------
     PARTIAL TWO ELECTRON INTEGRAL TRANSFORMATION
     --------------------------------------------

 NUMBER OF CORE MOLECULAR ORBITALS     =    0
 NUMBER OF OCCUPIED MOLECULAR ORBITALS =   20
 TOTAL NUMBER OF MOLECULAR ORBITALS    =   20
 TOTAL NUMBER OF ATOMIC ORBITALS       =   20
 THRESHOLD FOR KEEPING TRANSFORMED 2E- INTEGRALS = 1.000E-09
 AO INTEGRALS WILL BE READ IN FROM DISK...

 PLAN A: REQUIREMENTS FOR FULLY IN-MEMORY TRANSFORMATION:
 # OF WORDS AVAILABLE =              1000000
 # OF WORDS NEEDED    =               146042

 CHOOSING IN MEMORY PARTIAL TRANSFORMATION...
 TOTAL NUMBER OF TRANSFORMED 2E- INTEGRALS KEPT =         5962
 ... END OF INTEGRAL TRANSFORMATION ...
 STEP CPU TIME =     0.00 TOTAL CPU TIME =        0.0 (    0.0 MIN)
 TOTAL WALL CLOCK TIME=        0.1 SECONDS, CPU UTILIZATION IS  30.77%

     --------------------------------------------------
          AMES LABORATORY DETERMINANTAL FULL CI
     PROGRAM WRITTEN BY JOE IVANIC AND KLAUS RUEDENBERG
     --------------------------------------------------

 THE NUMBER OF DETERMINANTS HAVING SPACE SYMMETRY A1 
 IN POINT GROUP C2V  WITH SZ=  0.0 IS           9826
 THE DETERMINANT FULL CI REQUIRES          451749 WORDS
 INITIAL CI VECTOR GUESS TIME  :          0.1
 INITIAL FULL CI ITERATION TIME:          0.0

 ITERATION      ENERGY           GRADIENT
     0       -7.9956120572     0.12123798
     1       -7.9985946689     0.00848920
     2       -7.9986672092     0.00383431
     3       -7.9986760529     0.00109700
     4       -7.9986776957     0.00053478
     5       -7.9986780319     0.00020755
     6       -7.9986780627     0.00005140
     7       -7.9986780649     0.00001413
     8       -7.9986780651     0.00000369
     9       -7.9986780651     0.00000082

 CONVERGED STATE    1 ENERGY=       -7.9986780651 IN    9 ITERS

 ALL STATES CONVERGED.

 CI EIGENVECTORS WILL BE LABELED IN GROUP=C2V     
 PRINTING CI COEFFICIENTS LARGER THAN 5.000E-02

 STATE   1  ENERGY=        -7.9986780651  S=  0.00  SZ=  0.00  SPACE SYM=A1  

        ALPHA         |        BETA          | CI COEFFICIENT
----------------------|----------------------|---------------
 11000000000000000000 | 11000000000000000000 |   0.9815054843
 10000000010000000000 | 10000000010000000000 |  -0.0670591237
 10000100000000000000 | 10000100000000000000 |  -0.0632237188
 ..... DONE WITH DETERMINANT CI COMPUTATION .....
 STEP CPU TIME =     0.28 TOTAL CPU TIME =        0.3 (    0.0 MIN)
 TOTAL WALL CLOCK TIME=        0.5 SECONDS, CPU UTILIZATION IS  66.67%

     ---------------------------
     ONE PARTICLE DENSITY MATRIX
     ---------------------------

 DENSITY MATRIX WILL BE SAVED FOR   1-TH STATE WITH S= 0.00

 CI EIGENSTATE   1 TOTAL ENERGY =       -7.9986780651

          NATURAL ORBITALS IN ATOMIC ORBITAL BASIS
          ----------------------------------------

                      1          2          3          4          5
                    1.9998     1.9349     0.0546     0.0044     0.0024
                     A1         A1         A1         A1         B2  
    1  LI 1  S    0.999002  -0.105101   0.128644   0.045203   0.000000
    2  LI 1  S   -0.007183   0.155943  -0.498075   0.873458   0.000000
    3  LI 1  X   -0.000000  -0.000000   0.000000  -0.000000   0.000000
    4  LI 1  Y   -0.000000  -0.000000   0.000000  -0.000000   0.726503
    5  LI 1  Z   -0.008784   0.175541  -0.390800   1.176969   0.000000
    6  LI 1  S   -0.001905   0.255227  -0.475777  -0.757329   0.000000
    7  LI 1  X   -0.000000  -0.000000   0.000000  -0.000000   0.000000
    8  LI 1  Y   -0.000000  -0.000000   0.000000  -0.000000  -0.049194
    9  LI 1  Z    0.004326   0.053821  -0.115838  -0.722164   0.000000
   10  LI 1 XX    0.008027   0.004115   0.021254  -0.149234   0.000000
   11  LI 1 YY    0.008027   0.004115   0.021254  -0.149234   0.000000
   12  LI 1 ZZ    0.006601   0.037388  -0.051953   0.623075   0.000000
   13  LI 1 XY   -0.000000  -0.000000   0.000000  -0.000000   0.000000
   14  LI 1 XZ   -0.000000  -0.000000   0.000000  -0.000000   0.000000
   15  LI 1 YZ   -0.000000  -0.000000   0.000000  -0.000000   0.547997
   16  H  2  S   -0.000626   0.285604   0.578616   0.369520   0.000000
   17  H  2  S    0.001231   0.415594   0.536605  -0.997769   0.000000
   18  H  2  X   -0.000000  -0.000000   0.000000  -0.000000   0.000000
   19  H  2  Y   -0.000000  -0.000000   0.000000  -0.000000   0.384778
   20  H  2  Z   -0.000592  -0.004699   0.008609  -0.300095   0.000000

                      6          7          8          9         10
                    0.0024     0.0006     0.0002     0.0002     0.0001
                     B1         A1         B2         B1         A1  
    1  LI 1  S    0.000000   0.039617   0.000000   0.000000   0.046023
    2  LI 1  S    0.000000  -0.283558   0.000000   0.000000   2.661880
    3  LI 1  X    0.726503   0.000000   0.000000  -0.554633  -0.000000
    4  LI 1  Y    0.000000   0.000000  -0.554633   0.000000  -0.000000
    5  LI 1  Z    0.000000   0.235983   0.000000   0.000000   0.731378
    6  LI 1  S    0.000000  -0.566301   0.000000   0.000000  -1.348793
    7  LI 1  X   -0.049194   0.000000   0.000000   0.117800  -0.000000
    8  LI 1  Y    0.000000   0.000000   0.117800   0.000000  -0.000000
    9  LI 1  Z    0.000000  -0.387857   0.000000   0.000000  -0.607845
   10  LI 1 XX    0.000000  -0.008021   0.000000   0.000000  -0.589688
   11  LI 1 YY    0.000000  -0.008021   0.000000   0.000000  -0.589688
   12  LI 1 ZZ    0.000000   0.265570   0.000000   0.000000  -0.413375
   13  LI 1 XY    0.000000   0.000000   0.000000   0.000000  -0.000000
   14  LI 1 XZ    0.547997   0.000000   0.000000  -0.196851  -0.000000
   15  LI 1 YZ    0.000000   0.000000  -0.196851   0.000000  -0.000000
   16  H  2  S    0.000000  -1.145767   0.000000   0.000000   0.074616
   17  H  2  S    0.000000   1.334558   0.000000   0.000000  -0.317371
   18  H  2  X    0.384778   0.000000   0.000000   0.913898  -0.000000
   19  H  2  Y    0.000000   0.000000   0.913898   0.000000  -0.000000
   20  H  2  Z    0.000000  -0.018688   0.000000   0.000000   0.894640

                     11         12         13         14         15
                    0.0001     0.0000     0.0000     0.0000     0.0000
                     A1         B1         B2         A1         A1  
    1  LI 1  S    0.094362  -0.000000  -0.000000   0.078243  -0.002791
    2  LI 1  S    7.798199  -0.000000  -0.000000   5.600266  -0.383434
    3  LI 1  X   -0.000000  -1.399024  -0.000000   0.000000   0.000000
    4  LI 1  Y   -0.000000  -0.000000  -1.399024   0.000000   0.000000
    5  LI 1  Z   -0.926517  -0.000000  -0.000000   0.870239  -0.230668
    6  LI 1  S   -3.186144  -0.000000  -0.000000  -0.999603   0.343183
    7  LI 1  X   -0.000000   1.464860  -0.000000   0.000000   0.000000
    8  LI 1  Y   -0.000000  -0.000000   1.464860   0.000000   0.000000
    9  LI 1  Z    0.324755  -0.000000  -0.000000  -0.049471   1.052725
   10  LI 1 XX   -2.238722  -0.000000  -0.000000  -2.231510  -0.277307
   11  LI 1 YY   -2.238722  -0.000000  -0.000000  -2.231510  -0.277307
   12  LI 1 ZZ   -2.298634  -0.000000  -0.000000  -2.013564   1.216900
   13  LI 1 XY   -0.000000  -0.000000  -0.000000   0.000000   0.000000
   14  LI 1 XZ   -0.000000   0.419410  -0.000000   0.000000   0.000000
   15  LI 1 YZ   -0.000000  -0.000000   0.419410   0.000000   0.000000
   16  H  2  S   -0.143072  -0.000000  -0.000000   0.249500   0.161129
   17  H  2  S    0.528708  -0.000000  -0.000000  -0.811428  -1.071286
   18  H  2  X   -0.000000  -0.126468  -0.000000   0.000000   0.000000
   19  H  2  Y   -0.000000  -0.000000  -0.126468   0.000000   0.000000
   20  H  2  Z   -0.302236  -0.000000  -0.000000  -0.057778   0.373521

                     16         17         18         19         20
                    0.0000     0.0000     0.0000     0.0000     0.0000
                     B2         B1         A1         A2         A1  
    1  LI 1  S    0.000000   0.000000  -0.000000   0.000000  -0.090630
    2  LI 1  S    0.000000   0.000000  -0.000000   0.000000  -0.850879
    3  LI 1  X    0.000000  -0.123247  -0.000000   0.000000  -0.000000
    4  LI 1  Y   -0.123247   0.000000  -0.000000   0.000000  -0.000000
    5  LI 1  Z    0.000000   0.000000  -0.000000   0.000000   0.148363
    6  LI 1  S    0.000000   0.000000  -0.000000   0.000000   1.216761
    7  LI 1  X    0.000000   0.800925  -0.000000   0.000000  -0.000000
    8  LI 1  Y    0.800925   0.000000  -0.000000   0.000000  -0.000000
    9  LI 1  Z    0.000000   0.000000  -0.000000   0.000000  -0.800970
   10  LI 1 XX    0.000000   0.000000  -0.866025   0.000000  -0.310845
   11  LI 1 YY    0.000000   0.000000   0.866025   0.000000  -0.310845
   12  LI 1 ZZ    0.000000   0.000000  -0.000000   0.000000   0.424990
   13  LI 1 XY    0.000000   0.000000  -0.000000   1.000000  -0.000000
   14  LI 1 XZ    0.000000  -0.705676  -0.000000   0.000000  -0.000000
   15  LI 1 YZ   -0.705676   0.000000  -0.000000   0.000000  -0.000000
   16  H  2  S    0.000000   0.000000  -0.000000   0.000000  -0.142404
   17  H  2  S    0.000000   0.000000  -0.000000   0.000000   0.138750
   18  H  2  X    0.000000   0.131190  -0.000000   0.000000  -0.000000
   19  H  2  Y    0.131190   0.000000  -0.000000   0.000000  -0.000000
   20  H  2  Z    0.000000   0.000000  -0.000000   0.000000   0.110677
 ..... DONE WITH ONE PARTICLE DENSITY MATRIX .....
 STEP CPU TIME =     0.00 TOTAL CPU TIME =        0.3 (    0.0 MIN)
 TOTAL WALL CLOCK TIME=        0.5 SECONDS, CPU UTILIZATION IS  66.67%

     --------------------------------------------------------
     ALDET CI PROPERTIES...FOR THE WAVEFUNCTION OF STATE    1
               USING THE EXPECTATION VALUE DENSITY
     --------------------------------------------------------

          -----------------
          ENERGY COMPONENTS
          -----------------

         WAVEFUNCTION NORMALIZATION =       1.0000000000

                ONE ELECTRON ENERGY =     -11.9859196201
                TWO ELECTRON ENERGY =       3.1934756812
           NUCLEAR REPULSION ENERGY =       0.7937658739
                                      ------------------
                       TOTAL ENERGY =      -7.9986780651

 ELECTRON-ELECTRON POTENTIAL ENERGY =       3.1934756812
  NUCLEUS-ELECTRON POTENTIAL ENERGY =     -19.9221372223
   NUCLEUS-NUCLEUS POTENTIAL ENERGY =       0.7937658739
                                      ------------------
             TOTAL POTENTIAL ENERGY =     -15.9348956672
               TOTAL KINETIC ENERGY =       7.9362176021
                 VIRIAL RATIO (V/T) =       2.0078703062

          ---------------------------------------
          MULLIKEN AND LOWDIN POPULATION ANALYSES
          ---------------------------------------

               ----- POPULATIONS IN EACH AO -----
                             MULLIKEN      LOWDIN
              1  LI 1  S      1.99812     1.98301
              2  LI 1  S      0.20645     0.18520
              3  LI 1  X      0.00131     0.00103
              4  LI 1  Y      0.00131     0.00103
              5  LI 1  Z      0.18799     0.19182
              6  LI 1  S      0.32928     0.26836
              7  LI 1  X     -0.00006     0.00022
              8  LI 1  Y     -0.00006     0.00022
              9  LI 1  Z      0.05036     0.10232
             10  LI 1 XX      0.00388     0.03972
             11  LI 1 YY      0.00388     0.03972
             12  LI 1 ZZ      0.04742     0.14778
             13  LI 1 XY      0.00000     0.00000
             14  LI 1 XZ      0.00080     0.00079
             15  LI 1 YZ      0.00080     0.00079
             16  H  2  S      0.40936     0.40452
             17  H  2  S      0.75665     0.63077
             18  H  2  X      0.00063     0.00063
             19  H  2  Y      0.00063     0.00063
             20  H  2  Z      0.00126     0.00142

          ----- MULLIKEN ATOMIC OVERLAP POPULATIONS -----
          (OFF-DIAGONAL ELEMENTS NEED TO BE MULTIPLIED BY 2)

             1           2

    1    2.5189065
    2    0.3125673   0.8559589

          TOTAL MULLIKEN AND LOWDIN ATOMIC POPULATIONS
       ATOM         MULL.POP.    CHARGE          LOW.POP.     CHARGE
    1 LI            2.831474    0.168526         2.962029    0.037971
    2 H             1.168526   -0.168526         1.037971   -0.037971

          ---------------------
          ELECTROSTATIC MOMENTS
          ---------------------

 POINT   1           X           Y           Z (BOHR)    CHARGE
                 0.000000    0.000000    0.474715       -0.00 (A.U.)
         DX          DY          DZ         /D/  (DEBYE)
     0.000000    0.000000   -6.151328    6.151328
 ...... END OF PROPERTY EVALUATION ......
 STEP CPU TIME =     0.01 TOTAL CPU TIME =        0.3 (    0.0 MIN)
 TOTAL WALL CLOCK TIME=        0.5 SECONDS, CPU UTILIZATION IS  68.75%
               580000  WORDS OF DYNAMIC MEMORY USED
 EXECUTION OF GAMESS TERMINATED NORMALLY Thu Jan 17 17:46:46 2019
 DDI: 263640 bytes (0.3 MB / 0 MWords) used by master data server.

 ----------------------------------------
 CPU timing information for all processes
 ========================================
 0: 0.261 + 0.71 = 0.333
 1: 0.11 + 0.54 = 0.65
 ----------------------------------------
 ddikick.x: exited gracefully.
unset echo
----- accounting info -----
Files used on the master node bach.ad64.riken.go.jp were:
-rw-------  1 maho  staff      280  1 17 17:46 .//LiH.631g/2.0/LiH.631g.fullCI.2.0.gamess.F05
-rw-r--r--  1 maho  staff   180016  1 17 17:46 .//LiH.631g/2.0/LiH.631g.fullCI.2.0.gamess.F08
-rw-r--r--  1 maho  staff   181704  1 17 17:46 .//LiH.631g/2.0/LiH.631g.fullCI.2.0.gamess.F09
-rw-r--r--  1 maho  staff  1832320  1 17 17:46 .//LiH.631g/2.0/LiH.631g.fullCI.2.0.gamess.F10
-rw-r--r--  1 maho  staff    78640  1 17 17:46 .//LiH.631g/2.0/LiH.631g.fullCI.2.0.gamess.F12
-rw-r--r--  1 maho  staff    14499  1 17 17:46 .//LiH.631g/2.0/LiH.631g.fullCI.2.0.gamess.dat
-rw-------  1 maho  staff      280  1 17 17:46 .//LiH.631g/2.0/LiH.631g.fullCI.2.0.gamess.inp
-rw-r--r--  1 maho  staff    42514  1 17 17:46 .//LiH.631g/2.0/LiH.631g.fullCI.2.0.gamess.log
ls: No match.
ls: No match.
ls: No match.
2019年 1月17日 木曜日 17時46分49秒 JST
0.392u 0.245s 0:03.72 16.9%	0+0k 0+2io 0pf+0w
