----- GAMESS execution script 'rungms' -----
This job is running on host localhost
under operating system Linux at Thu Jan 17 18:33:03 JST 2019
Available scratch disk space (Kbyte units) at beginning of the job is
Filesystem     1K-blocks      Used Available Use% Mounted on
/dev/sda1      895286904 141745484 708040392  17% /
GAMESS temporary binary files will be written to .
GAMESS supplementary output files will be written to .
Copying input file N2.SV/3.4/N2.SV.fullCI.3.4.gamess.inp to your run's scratch directory...
cp N2.SV/3.4/N2.SV.fullCI.3.4.gamess.inp ./N2.SV/3.4/N2.SV.fullCI.3.4.gamess.F05
unset echo
/work/pubchem/pm6/pkg/gamess_intel/ddikick.x /work/pubchem/pm6/pkg/gamess_intel/gamess.00.x N2.SV/3.4/N2.SV.fullCI.3.4.gamess -ddi 12 12 localhost localhost localhost localhost localhost localhost localhost localhost localhost localhost localhost localhost -scr .

 Distributed Data Interface kickoff program.
 Initiating 12 compute processes on 12 nodes to run the following command:
 /work/pubchem/pm6/pkg/gamess_intel/gamess.00.x N2.SV/3.4/N2.SV.fullCI.3.4.gamess 

          ******************************************************
          *         GAMESS VERSION =  5 DEC 2014 (R1)          *
          *             FROM IOWA STATE UNIVERSITY             *
          * M.W.SCHMIDT, K.K.BALDRIDGE, J.A.BOATZ, S.T.ELBERT, *
          *   M.S.GORDON, J.H.JENSEN, S.KOSEKI, N.MATSUNAGA,   *
          *          K.A.NGUYEN, S.J.SU, T.L.WINDUS,           *
          *       TOGETHER WITH M.DUPUIS, J.A.MONTGOMERY       *
          *         J.COMPUT.CHEM.  14, 1347-1363(1993)        *
          **************** 64 BIT INTEL VERSION ****************

  SINCE 1993, STUDENTS AND POSTDOCS WORKING AT IOWA STATE UNIVERSITY
  AND ALSO IN THEIR VARIOUS JOBS AFTER LEAVING ISU HAVE MADE IMPORTANT
  CONTRIBUTIONS TO THE CODE:
     IVANA ADAMOVIC, CHRISTINE AIKENS, YURI ALEXEEV, POOJA ARORA,
     ANDREY ASADCHEV, ROB BELL, PRADIPTA BANDYOPADHYAY, JONATHAN BENTZ,
     BRETT BODE, KURT BRORSEN, CALEB CARLIN, GALINA CHABAN, WEI CHEN,
     CHEOL HO CHOI, PAUL DAY, ALBERT DEFUSCO, NUWAN DESILVA, TIM DUDLEY,
     DMITRI FEDOROV, GRAHAM FLETCHER, MARK FREITAG, KURT GLAESEMANN,
     DAN KEMP, GRANT MERRILL, NORIYUKI MINEZAWA, JONATHAN MULLIN,
     TAKESHI NAGATA, SEAN NEDD, HEATHER NETZLOFF, BOSILJKA NJEGIC, RYAN OLSON,
     MIKE PAK, SPENCER PRUITT, LUKE ROSKOP, JIM SHOEMAKER, LYUDMILA SLIPCHENKO,
     TONY SMITH, SAROM SOK, JIE SONG, TETSUYA TAKETSUGU, SIMON WEBB,
     PENG XU, SOOHAENG YOO, FEDERICO ZAHARIEV

  ADDITIONAL CODE HAS BEEN PROVIDED BY COLLABORATORS IN OTHER GROUPS:
     IOWA STATE UNIVERSITY:
          JOE IVANIC, AARON WEST, LAIMUTIS BYTAUTAS, KLAUS RUEDENBERG
     UNIVERSITY OF TOKYO: KIMIHIKO HIRAO, TAKAHITO NAKAJIMA,
          TAKAO TSUNEDA, MUNEAKI KAMIYA, SUSUMU YANAGISAWA,
          KIYOSHI YAGI, MAHITO CHIBA, SEIKEN TOKURA, NAOAKI KAWAKAMI
     UNIVERSITY OF AARHUS: FRANK JENSEN
     UNIVERSITY OF IOWA: VISVALDAS KAIRYS, HUI LI
     NATIONAL INST. OF STANDARDS AND TECHNOLOGY: WALT STEVENS, DAVID GARMER
     UNIVERSITY OF PISA: BENEDETTA MENNUCCI, JACOPO TOMASI
     UNIVERSITY OF MEMPHIS: HENRY KURTZ, PRAKASHAN KORAMBATH
     UNIVERSITY OF ALBERTA: TOBY ZENG, MARIUSZ KLOBUKOWSKI
     UNIVERSITY OF NEW ENGLAND: MARK SPACKMAN
     MIE UNIVERSITY: HIROAKI UMEDA
     NAT. INST. OF ADVANCED INDUSTRIAL SCIENCE AND TECHNOLOGY: KAZUO KITAURA
     MICHIGAN STATE UNIVERSITY:
          KAROL KOWALSKI, MARTA WLOCH, JEFFREY GOUR, JESSE LUTZ,
          WEI LI, PIOTR PIECUCH
     UNIVERSITY OF SILESIA: MONIKA MUSIAL, STANISLAW KUCHARSKI
     FACULTES UNIVERSITAIRES NOTRE-DAME DE LA PAIX:
          OLIVIER QUINET, BENOIT CHAMPAGNE
     UNIVERSITY OF CALIFORNIA - SANTA BARBARA: BERNARD KIRTMAN
     INSTITUTE FOR MOLECULAR SCIENCE:
          KAZUYA ISHIMURA, MICHIO KATOUDA, AND SHIGERU NAGASE
     UNIVERSITY OF NOTRE DAME: ANNA POMOGAEVA, DAN CHIPMAN
     KYUSHU UNIVERSITY:
          HARUYUKI NAKANO,
          FENG LONG GU, JACEK KORCHOWIEC, MARCIN MAKOWSKI, AND YURIKO AOKI,
          HIROTOSHI MORI AND EISAKU MIYOSHI
     PENNSYLVANIA STATE UNIVERSITY:
          TZVETELIN IORDANOV, CHET SWALINA, JONATHAN SKONE,
          SHARON HAMMES-SCHIFFER
     WASEDA UNIVERSITY:
          MASATO KOBAYASHI, TOMOKO AKAMA, TSUGUKI TOUMA,
          TAKESHI YOSHIKAWA, YASUHIRO IKABATA, HIROMI NAKAI
     NANJING UNIVERSITY: SHUHUA LI
     UNIVERSITY OF NEBRASKA:
          PEIFENG SU, DEJUN SI, NANDUN THELLAMUREGE, YALI WANG, HUI LI
     UNIVERSITY OF ZURICH: ROBERTO PEVERATI, KIM BALDRIDGE
     N. COPERNICUS UNIVERSITY AND JACKSON STATE UNIVERSITY:
          MARIA BARYSZ
     UNIVERSITY OF COPENHAGEN: CASPER STEINMANN
     TOKYO INSTITUTE OF TECHNOLOGY: HIROYA NAKATA
     NAGOYA UNIVERSITY: YOSHIO NISHIMOTO, STEPHAN IRLE


 PARALLEL VERSION RUNNING ON       12 PROCESSORS IN       12 NODES.

 EXECUTION OF GAMESS BEGUN Thu Jan 17 18:33:03 2019

            ECHO OF THE FIRST FEW INPUT CARDS -
 INPUT CARD> $CONTRL SCFTYP=RHF CITYP=ALDET $END                                            
 INPUT CARD> $GUESS GUESS=HUCKEL $END                                                       
 INPUT CARD> $SYSTEM MWORDS=300 $END                                                        
 INPUT CARD> $CIDET SZ=0 GROUP=C2V NCORE=2 NACT=16 NELS=10 NSTGSS=6 $END                    
 INPUT CARD> $DATA                                                                          
 INPUT CARD>N2...HF...Double-zeta basis                                                     
 INPUT CARD>Cnv   2                                                                         
 INPUT CARD>                                                                                
 INPUT CARD>N     7.0    0.0      0.0     0.0                                               
 INPUT CARD>S   7                                                                           
 INPUT CARD>  1   5909.0000000              0.0011900                                       
 INPUT CARD>  2    887.5000000              0.0090990                                       
 INPUT CARD>  3    204.7000000              0.0441450                                       
 INPUT CARD>  4     59.8400000              0.1504640                                       
 INPUT CARD>  5     20.0000000              0.3567410                                       
 INPUT CARD>  6      7.1930000              0.4465330                                       
 INPUT CARD>  7      2.6860000              0.1456030                                       
 INPUT CARD>S   2                                                                           
 INPUT CARD>  1      7.1930000             -0.1604050                                       
 INPUT CARD>  2      0.7000000              1.0582150                                       
 INPUT CARD>S   1                                                                           
 INPUT CARD>  1      0.2133000              1.0000000                                       
 INPUT CARD>P   4                                                                           
 INPUT CARD>  1     26.7900000              0.0182540                                       
 INPUT CARD>  2      5.9560000              0.1164610                                       
 INPUT CARD>  3      1.7070000              0.3901780                                       
 INPUT CARD>  4      0.5314000              0.6371020                                       
 INPUT CARD>P   1                                                                           
 INPUT CARD>  1      0.1654000              1.0000000                                       
 INPUT CARD>                                                                                
 INPUT CARD>N     7.0    0.0      0.0     3.4                                               
 INPUT CARD>S   7                                                                           
 INPUT CARD>  1   5909.0000000              0.0011900                                       
 INPUT CARD>  2    887.5000000              0.0090990                                       
 INPUT CARD>  3    204.7000000              0.0441450                                       
 INPUT CARD>  4     59.8400000              0.1504640                                       
 INPUT CARD>  5     20.0000000              0.3567410                                       
 INPUT CARD>  6      7.1930000              0.4465330                                       
 INPUT CARD>  7      2.6860000              0.1456030                                       
 INPUT CARD>S   2                                                                           
 INPUT CARD>  1      7.1930000             -0.1604050                                       
 INPUT CARD>  2      0.7000000              1.0582150                                       
 INPUT CARD>S   1                                                                           
 INPUT CARD>  1      0.2133000              1.0000000                                       
 INPUT CARD>P   4                                                                           
 INPUT CARD>  1     26.7900000              0.0182540                                       
 INPUT CARD>  2      5.9560000              0.1164610                                       
 INPUT CARD>  3      1.7070000              0.3901780                                       
 INPUT CARD>  4      0.5314000              0.6371020                                       
 INPUT CARD>P   1                                                                           
  300000000 WORDS OF MEMORY AVAILABLE


     RUN TITLE
     ---------
 N2...HF...Double-zeta basis                                                     

 THE POINT GROUP OF THE MOLECULE IS CNV     
 THE ORDER OF THE PRINCIPAL AXIS IS     2

 ATOM      ATOMIC                      COORDINATES (BOHR)
           CHARGE         X                   Y                   Z
 N           7.0     0.0000000000        0.0000000000        0.0000000000
 N           7.0     0.0000000000        0.0000000000        6.4250683583

          INTERNUCLEAR DISTANCES (ANGS.)
          ------------------------------

                1 N          2 N     

   1 N       0.0000000    3.4000000  
   2 N       3.4000000    0.0000000  

  * ... LESS THAN  3.000


     ATOMIC BASIS SET
     ----------------
 THE CONTRACTED PRIMITIVE FUNCTIONS HAVE BEEN UNNORMALIZED
 THE CONTRACTED BASIS FUNCTIONS ARE NOW NORMALIZED TO UNITY

  SHELL TYPE  PRIMITIVE        EXPONENT          CONTRACTION COEFFICIENT(S)

 N         

      1   S       1          5909.0000000    0.001189999548
      1   S       2           887.5000000    0.009098996542
      1   S       3           204.7000000    0.044144983225
      1   S       4            59.8400000    0.150463942825
      1   S       5            20.0000000    0.356740864442
      1   S       6             7.1930000    0.446532830321
      1   S       7             2.6860000    0.145602944672

      2   S       8             7.1930000   -0.160405033446
      2   S       9             0.7000000    1.058215220651

      3   S      10             0.2133000    1.000000000000

      4   P      11            26.7900000    0.018253998243
      4   P      12             5.9560000    0.116460988791
      4   P      13             1.7070000    0.390177962446
      4   P      14             0.5314000    0.637101938680

      5   P      15             0.1654000    1.000000000000

 N         

      6   S      16          5909.0000000    0.001189999548
      6   S      17           887.5000000    0.009098996542
      6   S      18           204.7000000    0.044144983225
      6   S      19            59.8400000    0.150463942825
      6   S      20            20.0000000    0.356740864442
      6   S      21             7.1930000    0.446532830321
      6   S      22             2.6860000    0.145602944672

      7   S      23             7.1930000   -0.160405033446
      7   S      24             0.7000000    1.058215220651

      8   S      25             0.2133000    1.000000000000

      9   P      26            26.7900000    0.018253998243
      9   P      27             5.9560000    0.116460988791
      9   P      28             1.7070000    0.390177962446
      9   P      29             0.5314000    0.637101938680

     10   P      30             0.1654000    1.000000000000

 TOTAL NUMBER OF BASIS SET SHELLS             =   10
 NUMBER OF CARTESIAN GAUSSIAN BASIS FUNCTIONS =   18
 NUMBER OF ELECTRONS                          =   14
 CHARGE OF MOLECULE                           =    0
 SPIN MULTIPLICITY                            =    1
 NUMBER OF OCCUPIED ORBITALS (ALPHA)          =    7
 NUMBER OF OCCUPIED ORBITALS (BETA )          =    7
 TOTAL NUMBER OF ATOMS                        =    2
 THE NUCLEAR REPULSION ENERGY IS        7.6263780038

 THIS MOLECULE IS RECOGNIZED AS BEING LINEAR,
 ORBITAL LZ DEGENERACY TOLERANCE ETOLLZ= 1.00E-06

     $CONTRL OPTIONS
     ---------------
 SCFTYP=RHF          RUNTYP=ENERGY       EXETYP=RUN     
 MPLEVL=       0     CITYP =ALDET        CCTYP =NONE         VBTYP =NONE    
 DFTTYP=NONE         TDDFT =NONE    
 MULT  =       1     ICHARG=       0     NZVAR =       0     COORD =UNIQUE  
 PP    =NONE         RELWFN=NONE         LOCAL =NONE         NUMGRD=       F
 ISPHER=      -1     NOSYM =       0     MAXIT =      30     UNITS =ANGS    
 PLTORB=       F     MOLPLT=       F     AIMPAC=       F     FRIEND=        
 NPRINT=       7     IREST =       0     GEOM  =INPUT   
 NORMF =       0     NORMP =       0     ITOL  =      20     ICUT  =       9
 INTTYP=BEST         GRDTYP=BEST         QMTTOL= 1.0E-06

     $SYSTEM OPTIONS
     ---------------
  REPLICATED MEMORY=   300000000 WORDS (ON EVERY NODE).
 DISTRIBUTED MEMDDI=           0 MILLION WORDS IN AGGREGATE,
 MEMDDI DISTRIBUTED OVER  12 PROCESSORS IS           0 WORDS/PROCESSOR.
 TOTAL MEMORY REQUESTED ON EACH PROCESSOR=   300000000 WORDS.
 TIMLIM=      525600.00 MINUTES, OR     365.0 DAYS.
 PARALL= T  BALTYP=  DLB     KDIAG=    0  COREFL= F
 MXSEQ2=     300 MXSEQ3=     150  mem10=         0

          ----------------
          PROPERTIES INPUT
          ----------------

     MOMENTS            FIELD           POTENTIAL          DENSITY
 IEMOM =       1   IEFLD =       0   IEPOT =       0   IEDEN =       0
 WHERE =COMASS     WHERE =NUCLEI     WHERE =NUCLEI     WHERE =NUCLEI  
 OUTPUT=BOTH       OUTPUT=BOTH       OUTPUT=BOTH       OUTPUT=BOTH    
 IEMINT=       0   IEFINT=       0                     IEDINT=       0
                                                       MORB  =       0
          EXTRAPOLATION IN EFFECT
          SOSCF IN EFFECT
 ORBITAL PRINTING OPTION: NPREO=     1    18     2     1

     -------------------------------
     INTEGRAL TRANSFORMATION OPTIONS
     -------------------------------
     NWORD  =            0
     CUTOFF = 1.0E-09     MPTRAN =       0
     DIRTRF =       F     AOINTS =DUP     

          ----------------------
          INTEGRAL INPUT OPTIONS
          ----------------------
 NOPK  =       1 NORDER=       0 SCHWRZ=       F

     ------------------------------------------
     THE POINT GROUP IS CNV, NAXIS= 2, ORDER= 4
     ------------------------------------------

     DIMENSIONS OF THE SYMMETRY SUBSPACES ARE
 A1  =   10     A2  =    0     B1  =    4     B2  =    4

 ..... DONE SETTING UP THE RUN .....
 CPU     0: STEP CPU TIME=     0.02 TOTAL CPU TIME=        0.0 (    0.0 MIN)
 TOTAL WALL CLOCK TIME=        0.0 SECONDS, CPU UTILIZATION IS 100.00%

          ********************
          1 ELECTRON INTEGRALS
          ********************
 ...... END OF ONE-ELECTRON INTEGRALS ......
 CPU     0: STEP CPU TIME=     0.00 TOTAL CPU TIME=        0.0 (    0.0 MIN)
 TOTAL WALL CLOCK TIME=        0.1 SECONDS, CPU UTILIZATION IS  33.33%

          -------------
          GUESS OPTIONS
          -------------
          GUESS =HUCKEL            NORB  =       0          NORDER=       0
          MIX   =       F          PRTMO =       F          PUNMO =       F
          TOLZ  = 1.0E-08          TOLE  = 1.0E-05
          SYMDEN=       F          PURIFY=       F

 INITIAL GUESS ORBITALS GENERATED BY HUCKEL   ROUTINE.
 HUCKEL GUESS REQUIRES      4352 WORDS.

 SYMMETRIES FOR INITIAL GUESS ORBITALS FOLLOW.   BOTH SET(S).
     7 ORBITALS ARE OCCUPIED (    2 CORE ORBITALS).
     3=A1       4=A1       5=A1       6=B1       7=B2       8=B1       9=B2  
    10=A1      11=A1      12=A1      13=A1      14=A1      15=B1      16=B1  
    17=B2  
 ...... END OF INITIAL ORBITAL SELECTION ......
 CPU     0: STEP CPU TIME=     0.00 TOTAL CPU TIME=        0.0 (    0.0 MIN)
 TOTAL WALL CLOCK TIME=        0.1 SECONDS, CPU UTILIZATION IS  33.33%

                    ----------------------
                    AO INTEGRAL TECHNOLOGY
                    ----------------------
     S,P,L SHELL ROTATED AXIS INTEGRALS, REPROGRAMMED BY
        KAZUYA ISHIMURA (IMS) AND JOSE SIERRA (SYNSTAR).
     S,P,D,L SHELL ROTATED AXIS INTEGRALS PROGRAMMED BY
        KAZUYA ISHIMURA (INSTITUTE FOR MOLECULAR SCIENCE).
     S,P,D,F,G SHELL TO TOTAL QUARTET ANGULAR MOMENTUM SUM 5,
        ERIC PROGRAM BY GRAHAM FLETCHER (ELORET AND NASA ADVANCED
        SUPERCOMPUTING DIVISION, AMES RESEARCH CENTER).
     S,P,D,F,G,L SHELL GENERAL RYS QUADRATURE PROGRAMMED BY
        MICHEL DUPUIS (PACIFIC NORTHWEST NATIONAL LABORATORY).

          --------------------
          2 ELECTRON INTEGRALS
          --------------------

 THE -PK- OPTION IS OFF, THE INTEGRALS ARE NOT IN SUPERMATRIX FORM.
 STORING   15000 INTEGRALS/RECORD ON DISK, USING 12 BYTES/INTEGRAL.
 TWO ELECTRON INTEGRAL EVALUATION REQUIRES   89411 WORDS OF MEMORY.
 II,JST,KST,LST =  1  1  1  1 NREC =         1 INTLOC =    1
 II,JST,KST,LST =  2  1  1  1 NREC =         1 INTLOC =    2
 II,JST,KST,LST =  3  1  1  1 NREC =         1 INTLOC =    7
 II,JST,KST,LST =  4  1  1  1 NREC =         1 INTLOC =   22
 II,JST,KST,LST =  5  1  1  1 NREC =         1 INTLOC =   67
 II,JST,KST,LST =  6  1  1  1 NREC =         1 INTLOC =   67
 II,JST,KST,LST =  7  1  1  1 NREC =         1 INTLOC =   67
 II,JST,KST,LST =  8  1  1  1 NREC =         1 INTLOC =   67
 II,JST,KST,LST =  9  1  1  1 NREC =         1 INTLOC =  108
 II,JST,KST,LST = 10  1  1  1 NREC =         1 INTLOC =  108
 TOTAL NUMBER OF NONZERO TWO-ELECTRON INTEGRALS =                3743
         12 INTEGRAL RECORDS WERE STORED ON DISK FILE  8.
  ...... END OF TWO-ELECTRON INTEGRALS .....
 CPU     0: STEP CPU TIME=     0.01 TOTAL CPU TIME=        0.0 (    0.0 MIN)
 TOTAL WALL CLOCK TIME=        0.1 SECONDS, CPU UTILIZATION IS  42.86%

          --------------------------
                 RHF SCF CALCULATION
          --------------------------

     NUCLEAR ENERGY =         7.6263780038
     MAXIT =   30     NPUNCH=    2
     EXTRAP=T  DAMP=F  SHIFT=F  RSTRCT=F  DIIS=F  DEM=F  SOSCF=T
     DENSITY MATRIX CONV=  1.00E-06
     SOSCF WILL OPTIMIZE      77 ORBITAL ROTATIONS, SOGTOL=   0.250
     MEMORY REQUIRED FOR RHF ITERS=     32828 WORDS.

 ITER EX DEM     TOTAL ENERGY        E CHANGE  DENSITY CHANGE     ORB. GRAD
   1  0  0     -107.7462457301  -107.7462457301   0.273415636   0.000000000
          ---------------START SECOND ORDER SCF---------------
   2  1  0     -107.9385763064    -0.1923305763   0.118953625   0.061030183
   3  2  0     -107.9538350059    -0.0152586995   0.024490142   0.023394460
   4  3  0     -107.9565566895    -0.0027216836   0.003140268   0.001871287
   5  4  0     -107.9565748937    -0.0000182042   0.001052983   0.000392870
   6  5  0     -107.9565759337    -0.0000010400   0.000040293   0.000030527
   7  6  0     -107.9565759413    -0.0000000076   0.000019723   0.000008310
   8  7  0     -107.9565759419    -0.0000000006   0.000001149   0.000000578
   9  8  0     -107.9565759419    -0.0000000000   0.000000060   0.000000047

          -----------------
          DENSITY CONVERGED
          -----------------
     TIME TO FORM FOCK OPERATORS=       0.0 SECONDS (       0.0 SEC/ITER)
     TIME TO SOLVE SCF EQUATIONS=       0.0 SECONDS (       0.0 SEC/ITER)

 FINAL RHF ENERGY IS     -107.9565759419 AFTER   9 ITERATIONS

 LZ VALUE ANALYSIS FOR THE MOS
 ----------------------------------------
 MO     1 (    1) HAS LZ(WEIGHT)= 0.00(100.0%) 
 MO     2 (    2) HAS LZ(WEIGHT)= 0.00(100.0%) 
 MO     3 (    3) HAS LZ(WEIGHT)= 0.00(100.0%) 
 MO     4 (    4) HAS LZ(WEIGHT)= 0.00(100.0%) 
 MO     5 (    5) HAS LZ(WEIGHT)= 0.00(100.0%) 
 MO     6 (    6) HAS LZ(WEIGHT)=-1.00( 50.0%)  1.00( 50.0%) 
 MO     7 (    6) HAS LZ(WEIGHT)=-1.00( 50.0%)  1.00( 50.0%) 
 MO     8 (    7) HAS LZ(WEIGHT)=-1.00( 50.0%)  1.00( 50.0%) 
 MO     9 (    7) HAS LZ(WEIGHT)=-1.00( 50.0%)  1.00( 50.0%) 
 MO    10 (    8) HAS LZ(WEIGHT)= 0.00(100.0%) 
 MO    11 (    9) HAS LZ(WEIGHT)= 0.00(100.0%) 
 MO    12 (   10) HAS LZ(WEIGHT)=-1.00( 50.0%)  1.00( 50.0%) 
 MO    13 (   10) HAS LZ(WEIGHT)=-1.00( 50.0%)  1.00( 50.0%) 
 MO    14 (   11) HAS LZ(WEIGHT)=-1.00( 50.0%)  1.00( 50.0%) 
 MO    15 (   11) HAS LZ(WEIGHT)=-1.00( 50.0%)  1.00( 50.0%) 
 MO    16 (   12) HAS LZ(WEIGHT)= 0.00(100.0%) 
 MO    17 (   13) HAS LZ(WEIGHT)= 0.00(100.0%) 
 MO    18 (   14) HAS LZ(WEIGHT)= 0.00(100.0%) 

          ------------
          EIGENVECTORS
          ------------

                      1          2          3          4          5
                  -15.8332   -15.8331    -1.0393    -1.0259    -0.3516
                     A1         A1         A1         A1         A1  
    1  N  1  S    0.706982  -0.706988  -0.172962   0.173971   0.006014
    2  N  1  S   -0.000169   0.000168   0.408509  -0.416139  -0.029510
    3  N  1  S    0.000930  -0.000895   0.358380  -0.353265   0.007196
    4  N  1  X    0.000000   0.000000   0.000000   0.000000   0.000000
    5  N  1  Y    0.000000   0.000000   0.000000   0.000000   0.000000
    6  N  1  Z    0.000181  -0.000111   0.003260   0.013560   0.484872
    7  N  1  X    0.000000   0.000000   0.000000   0.000000   0.000000
    8  N  1  Y    0.000000   0.000000   0.000000   0.000000   0.000000
    9  N  1  Z   -0.000059   0.000054   0.005974   0.008208   0.297201
   10  N  2  S    0.706982   0.706988  -0.172962  -0.173971   0.006014
   11  N  2  S   -0.000169  -0.000168   0.408509   0.416139  -0.029510
   12  N  2  S    0.000930   0.000895   0.358380   0.353265   0.007196
   13  N  2  X    0.000000   0.000000   0.000000   0.000000   0.000000
   14  N  2  Y    0.000000   0.000000   0.000000   0.000000   0.000000
   15  N  2  Z   -0.000181  -0.000111  -0.003260   0.013560  -0.484872
   16  N  2  X    0.000000   0.000000   0.000000   0.000000   0.000000
   17  N  2  Y    0.000000   0.000000   0.000000   0.000000   0.000000
   18  N  2  Z    0.000059   0.000054  -0.005974   0.008208  -0.297201

                      6          7          8          9         10
                   -0.3365    -0.3365    -0.1795    -0.1795    -0.1545
                     B2         B1         B2         B1         A1  
    1  N  1  S    0.000000   0.000000   0.000000   0.000000  -0.008097
    2  N  1  S    0.000000   0.000000   0.000000   0.000000   0.027743
    3  N  1  S    0.000000   0.000000   0.000000   0.000000   0.005791
    4  N  1  X    0.000000   0.504428   0.000000  -0.510771   0.000000
    5  N  1  Y    0.504428   0.000000  -0.510771   0.000000   0.000000
    6  N  1  Z    0.000000   0.000000   0.000000   0.000000   0.520487
    7  N  1  X    0.000000   0.293204   0.000000  -0.292084   0.000000
    8  N  1  Y    0.293204   0.000000  -0.292084   0.000000   0.000000
    9  N  1  Z    0.000000   0.000000   0.000000   0.000000   0.298705
   10  N  2  S    0.000000   0.000000   0.000000   0.000000   0.008097
   11  N  2  S    0.000000   0.000000   0.000000   0.000000  -0.027743
   12  N  2  S    0.000000   0.000000   0.000000   0.000000  -0.005791
   13  N  2  X    0.000000   0.504428   0.000000   0.510771   0.000000
   14  N  2  Y    0.504428   0.000000   0.510771   0.000000   0.000000
   15  N  2  Z    0.000000   0.000000   0.000000   0.000000   0.520487
   16  N  2  X    0.000000   0.293204   0.000000   0.292084   0.000000
   17  N  2  Y    0.293204   0.000000   0.292084   0.000000   0.000000
   18  N  2  Z    0.000000   0.000000   0.000000   0.000000   0.298705

                     11         12         13         14         15
                    0.5770     0.6159     0.6159     0.6649     0.6649
                     A1         B1         B2         B1         B2  
    1  N  1  S   -0.019584   0.000000   0.000000   0.000000   0.000000
    2  N  1  S    0.178249   0.000000   0.000000   0.000000   0.000000
    3  N  1  S   -0.146578   0.000000   0.000000   0.000000   0.000000
    4  N  1  X    0.000000  -0.657450   0.000000   0.662033   0.000000
    5  N  1  Y    0.000000   0.000000  -0.657450   0.000000   0.662033
    6  N  1  Z    0.650513   0.000000   0.000000   0.000000   0.000000
    7  N  1  X    0.000000   0.760819   0.000000  -0.798530   0.000000
    8  N  1  Y    0.000000   0.000000   0.760819   0.000000  -0.798530
    9  N  1  Z   -0.672464   0.000000   0.000000   0.000000   0.000000
   10  N  2  S   -0.019584   0.000000   0.000000   0.000000   0.000000
   11  N  2  S    0.178249   0.000000   0.000000   0.000000   0.000000
   12  N  2  S   -0.146578   0.000000   0.000000   0.000000   0.000000
   13  N  2  X    0.000000  -0.657450   0.000000  -0.662033   0.000000
   14  N  2  Y    0.000000   0.000000  -0.657450   0.000000  -0.662033
   15  N  2  Z   -0.650513   0.000000   0.000000   0.000000   0.000000
   16  N  2  X    0.000000   0.760819   0.000000   0.798530   0.000000
   17  N  2  Y    0.000000   0.000000   0.760819   0.000000   0.798530
   18  N  2  Z    0.672464   0.000000   0.000000   0.000000   0.000000

                     16         17         18
                    0.7234     0.8825     0.9885
                     A1         A1         A1  
    1  N  1  S   -0.036099  -0.089445   0.081997
    2  N  1  S    0.386678   1.088004  -1.053320
    3  N  1  S   -0.355455  -1.081808   1.074817
    4  N  1  X    0.000000   0.000000   0.000000
    5  N  1  Y    0.000000   0.000000   0.000000
    6  N  1  Z   -0.625545  -0.118798  -0.261865
    7  N  1  X    0.000000   0.000000   0.000000
    8  N  1  Y    0.000000   0.000000   0.000000
    9  N  1  Z    0.818657   0.164846   0.391876
   10  N  2  S    0.036099  -0.089445  -0.081997
   11  N  2  S   -0.386678   1.088004   1.053320
   12  N  2  S    0.355455  -1.081808  -1.074817
   13  N  2  X    0.000000   0.000000   0.000000
   14  N  2  Y    0.000000   0.000000   0.000000
   15  N  2  Z   -0.625545   0.118798  -0.261865
   16  N  2  X    0.000000   0.000000   0.000000
   17  N  2  Y    0.000000   0.000000   0.000000
   18  N  2  Z    0.818657  -0.164846   0.391876
 ...... END OF RHF CALCULATION ......
 CPU     0: STEP CPU TIME=     0.00 TOTAL CPU TIME=        0.0 (    0.0 MIN)
 TOTAL WALL CLOCK TIME=        0.1 SECONDS, CPU UTILIZATION IS  37.50%

     ----------------------------------------------------------------
     PROPERTY VALUES FOR THE RHF   SELF-CONSISTENT FIELD WAVEFUNCTION
     ----------------------------------------------------------------

          -----------------
          ENERGY COMPONENTS
          -----------------

         WAVEFUNCTION NORMALIZATION =       1.0000000000

                ONE ELECTRON ENERGY =    -161.6534333312
                TWO ELECTRON ENERGY =      46.0704793855
           NUCLEAR REPULSION ENERGY =       7.6263780038
                                      ------------------
                       TOTAL ENERGY =    -107.9565759419

 ELECTRON-ELECTRON POTENTIAL ENERGY =      46.0704793855
  NUCLEUS-ELECTRON POTENTIAL ENERGY =    -269.0540611328
   NUCLEUS-NUCLEUS POTENTIAL ENERGY =       7.6263780038
                                      ------------------
             TOTAL POTENTIAL ENERGY =    -215.3572037435
               TOTAL KINETIC ENERGY =     107.4006278017
                 VIRIAL RATIO (V/T) =       2.0051763956

  ...... PI ENERGY ANALYSIS ......

 ENERGY ANALYSIS:
            FOCK ENERGY=    -69.5124741352
          BARE H ENERGY=   -161.6534333312
     ELECTRONIC ENERGY =   -115.5829537332
         KINETIC ENERGY=    107.4006278017
          N-N REPULSION=      7.6263780038
           TOTAL ENERGY=   -107.9565757295
        SIGMA PART(1+2)=   -103.6239370791
               (K,V1,2)=    100.9690267006   -240.0506083157     35.4576445359
           PI PART(1+2)=    -11.9590166541
               (K,V1,2)=      6.4316011010    -29.0034528172     10.6128350620
  SIGMA SKELETON, ERROR=    -95.9975590754     -0.0000000000
             MIXED PART= 0.00000E+00 0.00000E+00 0.00000E+00 0.00000E+00
 ...... END OF PI ENERGY ANALYSIS ......

          ---------------------------------------
          MULLIKEN AND LOWDIN POPULATION ANALYSES
          ---------------------------------------

               ----- POPULATIONS IN EACH AO -----
                             MULLIKEN      LOWDIN
              1  N  1  S      2.00013     1.99716
              2  N  1  S      1.07122     1.03870
              3  N  1  S      0.92816     0.96297
              4  N  1  X      0.66565     0.63917
              5  N  1  Y      0.66565     0.63917
              6  N  1  Z      0.62982     0.60023
              7  N  1  X      0.33435     0.36083
              8  N  1  Y      0.33435     0.36083
              9  N  1  Z      0.37066     0.40094
             10  N  2  S      2.00013     1.99716
             11  N  2  S      1.07122     1.03870
             12  N  2  S      0.92816     0.96297
             13  N  2  X      0.66565     0.63917
             14  N  2  Y      0.66565     0.63917
             15  N  2  Z      0.62982     0.60023
             16  N  2  X      0.33435     0.36083
             17  N  2  Y      0.33435     0.36083
             18  N  2  Z      0.37066     0.40094

          ----- MULLIKEN ATOMIC OVERLAP POPULATIONS -----
          (OFF-DIAGONAL ELEMENTS NEED TO BE MULTIPLIED BY 2)

             1           2

    1    6.9359689
    2    0.0640311   6.9359689

          TOTAL MULLIKEN AND LOWDIN ATOMIC POPULATIONS
       ATOM         MULL.POP.    CHARGE          LOW.POP.     CHARGE
    1 N             7.000000   -0.000000         7.000000   -0.000000
    2 N             7.000000    0.000000         7.000000    0.000000

          ---------------------
          ELECTROSTATIC MOMENTS
          ---------------------

 POINT   1           X           Y           Z (BOHR)    CHARGE
                 0.000000    0.000000    3.212534        0.00 (A.U.)
         DX          DY          DZ         /D/  (DEBYE)
     0.000000    0.000000    0.000000    0.000000
 ...... END OF PROPERTY EVALUATION ......
 CPU     0: STEP CPU TIME=     0.01 TOTAL CPU TIME=        0.0 (    0.0 MIN)
 TOTAL WALL CLOCK TIME=        0.1 SECONDS, CPU UTILIZATION IS  36.36%

 DETERMINANT CI OPTIONS   NRNFG   NPFLG
 INTEGRAL TRANSFORMATION    1       0
 DIAGONALIZE HAMILTONIAN    1       0
 FORM 1E- DENSITY MATRIX    1       0
 FORM 2E- DENSITY MATRIX    0       0

     --------------------------------------------------
          AMES LABORATORY DETERMINANTAL FULL CI
     PROGRAM WRITTEN BY JOE IVANIC AND KLAUS RUEDENBERG
     --------------------------------------------------

 THE POINT GROUP                  =   C2V     
 THE STATE SYMMETRY               =   A1      
 NUMBER OF CORE ORBITALS          =    2
 NUMBER OF ACTIVE ORBITALS        =   16
 NUMBER OF ALPHA ELECTRONS        =    7 (   5 ACTIVE)
 NUMBER OF BETA ELECTRONS         =    7 (   5 ACTIVE)
 NUMBER OF OCCUPIED ORBITALS      =   18
 NUMBER OF CI STATES REQUESTED    =    1
 NUMBER OF CI STARTING VECTORS    =    6
 MAX. NO. OF CI EXPANSION VECTORS =   12
 SIZE OF INITIAL CI GUESS MATRIX  =  300
 MAX. NO. OF CI ITERS/STATE       =  100
 CI DIAGONALIZATION CRITERION     = 1.00E-06
 CI PROPERTIES WILL BE FOUND FOR ROOT NUMBER   1
 1E- DENSITY MATRIX OPTIONS ARE 1

 CORRELATION ENERGY ANALYSIS      =    F

 SYMMETRIES FOR THE   2 CORE,  16 ACTIVE ARE

     CORE= A1    A1  

   ACTIVE= A1    A1    A1    B2    B1    B2    B1    A1    A1    B1  
           B2    B1    B2    A1    A1    A1  

     --------------------------------------------
     PARTIAL TWO ELECTRON INTEGRAL TRANSFORMATION
     --------------------------------------------

 NUMBER OF CORE MOLECULAR ORBITALS     =    2
 NUMBER OF OCCUPIED MOLECULAR ORBITALS =   18
 TOTAL NUMBER OF MOLECULAR ORBITALS    =   18
 TOTAL NUMBER OF ATOMIC ORBITALS       =   18
 THRESHOLD FOR KEEPING TRANSFORMED 2E- INTEGRALS = 1.000E-09

 -------------------------------     ------------------------------
 DISTRIBUTED DATA TRANSFORMATION     PROGRAM WRITTEN BY G. FLETCHER
 -------------------------------     ------------------------------

 THE DISTRIBUTED MEMORY REQUIRED FOR THIS STEP IS MEMDDI=         1 MWORDS
 CREATING DISTRIBUTED STORAGE FOR [OCC OCC|OCC OCC] INTEGRALS
 DDI: Creating Array [0] - 171 x 171 = 29241 words.
 CREATING WORKSPACE OF SIZE VVOO
 DDI: Creating Array [1] - 171 x 171 = 29241 words.
 FOR   12 PROCESSORS, THE REPLICATED MEMORY NEEDED IS       58507 WORDS.

      DIRECT 4-INDEX TRANSFORMATION 
      SCHWARZ INEQUALITY TEST SKIPPED          0 INTEGRAL BLOCKS
 ----- FROZEN CORE ENERGY =       -93.1995893463
 ... END OF INTEGRAL TRANSFORMATION ...
 CPU     0: STEP CPU TIME=     0.00 TOTAL CPU TIME=        0.0 (    0.0 MIN)
 TOTAL WALL CLOCK TIME=        0.1 SECONDS, CPU UTILIZATION IS  26.67%

     --------------------------------------------------
          AMES LABORATORY DETERMINANTAL FULL CI
     PROGRAM WRITTEN BY JOE IVANIC AND KLAUS RUEDENBERG
     --------------------------------------------------

 THE NUMBER OF DETERMINANTS HAVING SPACE SYMMETRY A1 
 IN POINT GROUP C2V  WITH SZ=  0.0 IS        4777056
 THE DETERMINANT FULL CI REQUIRES       119865995 WORDS
 INITIAL CI VECTOR GUESS TIME  :          1.7
 INITIAL FULL CI ITERATION TIME:          5.6

 ITERATION      ENERGY           GRADIENT
     0     -108.7435730291     0.45547171
     1     -108.8428772526     0.18361711
     2     -108.8549525787     0.06886739
     3     -108.8564563312     0.03072809
     4     -108.8567738691     0.01552938
     5     -108.8568467079     0.00616351
     6     -108.8568570684     0.00235192
     7     -108.8568582574     0.00137929
     8     -108.8568587705     0.00111714
     9     -108.8568592077     0.00090610
    10     -108.8568594189     0.00057185
    11     -108.8568594915     0.00040973
    12     -108.8568595318     0.00023968
    13     -108.8568595445     0.00016224
    14     -108.8568595541     0.00017244
    15     -108.8568595653     0.00018125
    16     -108.8568595782     0.00018555
    17     -108.8568595915     0.00023721
    18     -108.8568596151     0.00030727
    19     -108.8568596432     0.00028246
    20     -108.8568596835     0.00038201
    21     -108.8568598338     0.00092237
    22     -108.8568609213     0.00321067
    23     -108.8569887651     0.02182477
    24     -108.8570842345     0.01169733
    25     -108.8571191199     0.00949371
    26     -108.8571506868     0.00724722
    27     -108.8571620400     0.00436781
    28     -108.8571654846     0.00202221
    29     -108.8571663418     0.00118516
    30     -108.8571666499     0.00082830
    31     -108.8571667861     0.00051606
    32     -108.8571668733     0.00043029
    33     -108.8571669354     0.00035395
    34     -108.8571669604     0.00019169
    35     -108.8571669686     0.00009869
    36     -108.8571669707     0.00006997
    37     -108.8571669717     0.00004417
    38     -108.8571669723     0.00003155
    39     -108.8571669725     0.00002141
    40     -108.8571669726     0.00001117
    41     -108.8571669727     0.00000780
    42     -108.8571669727     0.00000677
    43     -108.8571669727     0.00000400
    44     -108.8571669727     0.00000326
    45     -108.8571669727     0.00000296
    46     -108.8571669727     0.00000174
    47     -108.8571669727     0.00000103
    48     -108.8571669727     0.00000085

 CONVERGED STATE    1 ENERGY=     -108.8571669727 IN   48 ITERS

 ALL STATES CONVERGED.

 CI EIGENVECTORS WILL BE LABELED IN GROUP=C2V     
 PRINTING CI COEFFICIENTS LARGER THAN  0.050000

 STATE   1  ENERGY=      -108.8571669727  S=  0.00  SZ=  0.00  SPACE SYM=A1  

      ALPHA       |      BETA        | COEFFICIENT
------------------|------------------|------------
 1111100000000000 | 1111100000000000 |   0.2587239
 1111001000000000 | 1111001000000000 |  -0.2534681
 1110110000000000 | 1110110000000000 |  -0.2534681
 1110011000000000 | 1110011000000000 |   0.2483964
 1101100100000000 | 1101100100000000 |  -0.2313634
 1101001100000000 | 1101001100000000 |   0.2270782
 1100110100000000 | 1100110100000000 |   0.2270782
 1100011100000000 | 1100011100000000 |  -0.2229489
 1111010000000000 | 1110101000000000 |   0.1689360
 1110101000000000 | 1111010000000000 |   0.1689360
 1111000100000000 | 1101101000000000 |  -0.1605965
 1101101000000000 | 1111000100000000 |  -0.1605965
 1101110000000000 | 1110100100000000 |   0.1605965
 1110100100000000 | 1101110000000000 |   0.1605965
 1110010100000000 | 1100111000000000 |  -0.1574953
 1100111000000000 | 1110010100000000 |  -0.1574953
 1101011000000000 | 1110001100000000 |   0.1574953
 1110001100000000 | 1101011000000000 |   0.1574953
 1101010100000000 | 1100101100000000 |  -0.1513458
 1100101100000000 | 1101010100000000 |  -0.1513458
 1110110000000000 | 1111001000000000 |   0.0845222
 1111001000000000 | 1110110000000000 |   0.0845222
 1111100000000000 | 1110011000000000 |   0.0844138
 1110011000000000 | 1111100000000000 |   0.0844138
 1110110000000000 | 1101100100000000 |   0.0805942
 1101100100000000 | 1110110000000000 |   0.0805942
 1101100100000000 | 1111001000000000 |  -0.0805942
 1111001000000000 | 1101100100000000 |  -0.0805942
 1111100000000000 | 1100110100000000 |  -0.0800024
 1100110100000000 | 1111100000000000 |  -0.0800024
 1101001100000000 | 1111100000000000 |   0.0800024
 1111100000000000 | 1101001100000000 |   0.0800024
 1110011000000000 | 1101001100000000 |   0.0790410
 1101001100000000 | 1110011000000000 |   0.0790410
 1100110100000000 | 1110011000000000 |  -0.0790410
 1110011000000000 | 1100110100000000 |  -0.0790410
 1111001000000000 | 1100011100000000 |  -0.0784543
 1100011100000000 | 1111001000000000 |  -0.0784543
 1100011100000000 | 1110110000000000 |   0.0784543
 1110110000000000 | 1100011100000000 |   0.0784543
 1100110100000000 | 1101001100000000 |  -0.0757241
 1101001100000000 | 1100110100000000 |  -0.0757241
 1101100100000000 | 1100011100000000 |  -0.0756216
 1100011100000000 | 1101100100000000 |  -0.0756216
 ..... DONE WITH DETERMINANT CI COMPUTATION .....
 CPU     0: STEP CPU TIME=   126.15 TOTAL CPU TIME=      126.2 (    2.1 MIN)
 TOTAL WALL CLOCK TIME=      159.5 SECONDS, CPU UTILIZATION IS  79.12%

     ---------------------------
     ONE PARTICLE DENSITY MATRIX
     ---------------------------

 DENSITY MATRIX WILL BE SAVED FOR   1-TH STATE WITH S= 0.00

 CI EIGENSTATE   1 TOTAL ENERGY =     -108.8571669727

          NATURAL ORBITALS IN ATOMIC ORBITAL BASIS
          ----------------------------------------

                      1          2          3          4          5
                    2.0000     2.0000     1.9853     1.9843     1.0723
                     A1         A1         A1         A1         A1  
    1  N  1  S    0.706982  -0.706988  -0.170516  -0.171478   0.001882
    2  N  1  S   -0.000169   0.000168   0.379275   0.384661  -0.005296
    3  N  1  S    0.000930  -0.000895   0.387221   0.385095  -0.004747
    4  N  1  X    0.000000   0.000000   0.000000   0.000000   0.000000
    5  N  1  Y    0.000000   0.000000   0.000000   0.000000   0.000000
    6  N  1  Z    0.000181  -0.000111  -0.002286   0.001963   0.548710
    7  N  1  X    0.000000   0.000000   0.000000   0.000000   0.000000
    8  N  1  Y    0.000000   0.000000   0.000000   0.000000   0.000000
    9  N  1  Z   -0.000059   0.000054   0.001714  -0.003042   0.227123
   10  N  2  S    0.706982   0.706988  -0.170516   0.171478   0.001882
   11  N  2  S   -0.000169  -0.000168   0.379275  -0.384661  -0.005296
   12  N  2  S    0.000930   0.000895   0.387221  -0.385095  -0.004747
   13  N  2  X    0.000000   0.000000   0.000000   0.000000   0.000000
   14  N  2  Y    0.000000   0.000000   0.000000   0.000000   0.000000
   15  N  2  Z   -0.000181  -0.000111   0.002286   0.001963  -0.548710
   16  N  2  X    0.000000   0.000000   0.000000   0.000000   0.000000
   17  N  2  Y    0.000000   0.000000   0.000000   0.000000   0.000000
   18  N  2  Z    0.000059   0.000054  -0.001714  -0.003042  -0.227123

                      6          7          8          9         10
                    1.0090     1.0090     0.9820     0.9820     0.9190
                     B1         B2         B1         B2         A1  
    1  N  1  S    0.000000   0.000000   0.000000   0.000000  -0.002309
    2  N  1  S    0.000000   0.000000   0.000000   0.000000   0.005781
    3  N  1  S    0.000000   0.000000   0.000000   0.000000   0.005310
    4  N  1  X    0.557656   0.000000  -0.562479   0.000000   0.000000
    5  N  1  Y    0.000000   0.557656   0.000000  -0.562479   0.000000
    6  N  1  Z    0.000000   0.000000   0.000000   0.000000   0.572288
    7  N  1  X    0.228534   0.000000  -0.226760   0.000000   0.000000
    8  N  1  Y    0.000000   0.228534   0.000000  -0.226760   0.000000
    9  N  1  Z    0.000000   0.000000   0.000000   0.000000   0.227259
   10  N  2  S    0.000000   0.000000   0.000000   0.000000   0.002309
   11  N  2  S    0.000000   0.000000   0.000000   0.000000  -0.005781
   12  N  2  S    0.000000   0.000000   0.000000   0.000000  -0.005310
   13  N  2  X    0.557656   0.000000   0.562479   0.000000   0.000000
   14  N  2  Y    0.000000   0.557656   0.000000   0.562479   0.000000
   15  N  2  Z    0.000000   0.000000   0.000000   0.000000   0.572288
   16  N  2  X    0.228534   0.000000   0.226760   0.000000   0.000000
   17  N  2  Y    0.000000   0.228534   0.000000   0.226760   0.000000
   18  N  2  Z    0.000000   0.000000   0.000000   0.000000   0.227259

                     11         12         13         14         15
                    0.0116     0.0104     0.0067     0.0061     0.0061
                     A1         A1         A1         B1         B2  
    1  N  1  S   -0.094915  -0.093574  -0.015748   0.000000   0.000000
    2  N  1  S    1.086985   1.107202   0.240545   0.000000   0.000000
    3  N  1  S   -1.048895  -1.085878  -0.264835   0.000000   0.000000
    4  N  1  X    0.000000   0.000000   0.000000  -0.612950   0.000000
    5  N  1  Y    0.000000   0.000000   0.000000   0.000000  -0.612950
    6  N  1  Z    0.111851  -0.102641  -0.598993   0.000000   0.000000
    7  N  1  X    0.000000   0.000000   0.000000   0.782679   0.000000
    8  N  1  Y    0.000000   0.000000   0.000000   0.000000   0.782679
    9  N  1  Z   -0.107777   0.119377   0.710311   0.000000   0.000000
   10  N  2  S   -0.094915   0.093574  -0.015748   0.000000   0.000000
   11  N  2  S    1.086985  -1.107202   0.240545   0.000000   0.000000
   12  N  2  S   -1.048895   1.085878  -0.264835   0.000000   0.000000
   13  N  2  X    0.000000   0.000000   0.000000  -0.612950   0.000000
   14  N  2  Y    0.000000   0.000000   0.000000   0.000000  -0.612950
   15  N  2  Z   -0.111851  -0.102641   0.598993   0.000000   0.000000
   16  N  2  X    0.000000   0.000000   0.000000   0.782679   0.000000
   17  N  2  Y    0.000000   0.000000   0.000000   0.000000   0.782679
   18  N  2  Z    0.107777   0.119377  -0.710311   0.000000   0.000000

                     16         17         18
                    0.0057     0.0057     0.0048
                     B1         B2         A1  
    1  N  1  S    0.000000   0.000000   0.013867
    2  N  1  S    0.000000   0.000000  -0.243002
    3  N  1  S    0.000000   0.000000   0.280986
    4  N  1  X    0.618703   0.000000   0.000000
    5  N  1  Y    0.000000   0.618703   0.000000
    6  N  1  Z    0.000000   0.000000  -0.626831
    7  N  1  X   -0.819477   0.000000   0.000000
    8  N  1  Y    0.000000  -0.819477   0.000000
    9  N  1  Z    0.000000   0.000000   0.920408
   10  N  2  S    0.000000   0.000000  -0.013867
   11  N  2  S    0.000000   0.000000   0.243002
   12  N  2  S    0.000000   0.000000  -0.280986
   13  N  2  X   -0.618703   0.000000   0.000000
   14  N  2  Y    0.000000  -0.618703   0.000000
   15  N  2  Z    0.000000   0.000000  -0.626831
   16  N  2  X    0.819477   0.000000   0.000000
   17  N  2  Y    0.000000   0.819477   0.000000
   18  N  2  Z    0.000000   0.000000   0.920408
 ..... DONE WITH ONE PARTICLE DENSITY MATRIX .....
 CPU     0: STEP CPU TIME=     0.97 TOTAL CPU TIME=      127.2 (    2.1 MIN)
 TOTAL WALL CLOCK TIME=      160.5 SECONDS, CPU UTILIZATION IS  79.24%

     --------------------------------------------------------
     ALDET CI PROPERTIES...FOR THE WAVEFUNCTION OF STATE    1
               USING THE EXPECTATION VALUE DENSITY
     --------------------------------------------------------

          -----------------
          ENERGY COMPONENTS
          -----------------

         WAVEFUNCTION NORMALIZATION =       1.0000000000

                ONE ELECTRON ENERGY =    -162.9204810022
                TWO ELECTRON ENERGY =      46.4369360257
           NUCLEAR REPULSION ENERGY =       7.6263780038
                                      ------------------
                       TOTAL ENERGY =    -108.8571669727

 ELECTRON-ELECTRON POTENTIAL ENERGY =      46.4369360257
  NUCLEUS-ELECTRON POTENTIAL ENERGY =    -271.6308392621
   NUCLEUS-NUCLEUS POTENTIAL ENERGY =       7.6263780038
                                      ------------------
             TOTAL POTENTIAL ENERGY =    -217.5675252326
               TOTAL KINETIC ENERGY =     108.7103582599
                 VIRIAL RATIO (V/T) =       2.0013504574

          ---------------------------------------
          MULLIKEN AND LOWDIN POPULATION ANALYSES
          ---------------------------------------

               ----- POPULATIONS IN EACH AO -----
                             MULLIKEN      LOWDIN
              1  N  1  S      2.00013     1.99633
              2  N  1  S      0.98070     0.98310
              3  N  1  S      1.01450     1.01538
              4  N  1  X      0.75976     0.72079
              5  N  1  Y      0.75976     0.72079
              6  N  1  Z      0.75910     0.72003
              7  N  1  X      0.24165     0.28063
              8  N  1  Y      0.24165     0.28063
              9  N  1  Z      0.24273     0.28232
             10  N  2  S      2.00013     1.99633
             11  N  2  S      0.98070     0.98310
             12  N  2  S      1.01450     1.01538
             13  N  2  X      0.75976     0.72079
             14  N  2  Y      0.75976     0.72079
             15  N  2  Z      0.75910     0.72003
             16  N  2  X      0.24165     0.28063
             17  N  2  Y      0.24165     0.28063
             18  N  2  Z      0.24273     0.28232

          ----- MULLIKEN ATOMIC OVERLAP POPULATIONS -----
          (OFF-DIAGONAL ELEMENTS NEED TO BE MULTIPLIED BY 2)

             1           2

    1    6.9975769
    2    0.0024231   6.9975769

          TOTAL MULLIKEN AND LOWDIN ATOMIC POPULATIONS
       ATOM         MULL.POP.    CHARGE          LOW.POP.     CHARGE
    1 N             7.000000    0.000000         7.000000    0.000000
    2 N             7.000000    0.000000         7.000000    0.000000

          ---------------------
          ELECTROSTATIC MOMENTS
          ---------------------

 POINT   1           X           Y           Z (BOHR)    CHARGE
                 0.000000    0.000000    3.212534        0.00 (A.U.)
         DX          DY          DZ         /D/  (DEBYE)
     0.000000    0.000000    0.000000    0.000000
 ...... END OF PROPERTY EVALUATION ......
 CPU     0: STEP CPU TIME=     0.00 TOTAL CPU TIME=      127.2 (    2.1 MIN)
 TOTAL WALL CLOCK TIME=      160.9 SECONDS, CPU UTILIZATION IS  79.01%
             119866859  WORDS OF DYNAMIC MEMORY USED
 EXECUTION OF GAMESS TERMINATED NORMALLY Thu Jan 17 18:35:45 2019
 DDI: 305760 bytes (0.3 MB / 0 MWords) used by master data server.

 ----------------------------------------
 CPU timing information for all processes
 ========================================
 0: 119.64 + 8.260 = 127.324
 1: 118.616 + 10.176 = 128.792
 2: 119.140 + 8.860 = 127.1000
 3: 118.412 + 10.620 = 129.32
 4: 119.36 + 9.768 = 128.804
 5: 118.40 + 9.320 = 127.360
 6: 116.84 + 8.356 = 124.440
 7: 119.124 + 7.956 = 127.80
 8: 117.984 + 8.632 = 126.616
 9: 119.532 + 8.544 = 128.76
 10: 119.244 + 7.172 = 126.416
 11: 117.776 + 6.288 = 124.64
 12: 0.472 + 4.932 = 5.404
 13: 0.04 + 0.00 = 0.04
 14: 0.04 + 0.00 = 0.04
 15: 0.04 + 0.04 = 0.08
 16: 0.04 + 0.04 = 0.08
 17: 0.00 + 0.04 = 0.04
 18: 0.00 + 0.04 = 0.04
 19: 0.04 + 0.00 = 0.04
 20: 0.04 + 0.04 = 0.08
 21: 0.04 + 0.00 = 0.04
 22: 0.00 + 0.04 = 0.04
 23: 0.00 + 0.04 = 0.04
 ----------------------------------------
 ddikick.x: exited gracefully.
unset echo
----- accounting info -----
Files used on the master node localhost were:
-rw-rw-r-- 1 maho maho    13429 Jan 17 18:35 ./N2.SV/3.4/N2.SV.fullCI.3.4.gamess.dat
-rw------- 1 maho maho     1813 Jan 17 18:33 ./N2.SV/3.4/N2.SV.fullCI.3.4.gamess.F05
-rw-rw-r-- 1 maho maho   180016 Jan 17 18:33 ./N2.SV/3.4/N2.SV.fullCI.3.4.gamess.F08
-rw-rw-r-- 1 maho maho     1376 Jan 17 18:33 ./N2.SV/3.4/N2.SV.fullCI.3.4.gamess.F09
-rw-rw-r-- 1 maho maho  1865040 Jan 17 18:35 ./N2.SV/3.4/N2.SV.fullCI.3.4.gamess.F10
-rw-rw-r-- 1 maho maho 38216480 Jan 17 18:35 ./N2.SV/3.4/N2.SV.fullCI.3.4.gamess.F12
-rw------- 1 maho maho     1813 Jan 17 18:33 ./N2.SV/3.4/N2.SV.fullCI.3.4.gamess.inp
-rw-rw-r-- 1 maho maho    49225 Jan 17 18:35 ./N2.SV/3.4/N2.SV.fullCI.3.4.gamess.log
ls: No match.
ls: No match.
ls: No match.
Thu Jan 17 18:35:48 JST 2019
0.0u 0.0s 2:44.40 0.0% 0+0k 0+8io 0pf+0w
