----- GAMESS execution script 'rungms' -----
This job is running on host bach.ad64.riken.go.jp
under operating system Darwin at 2019年 1月17日 木曜日 17時47分00秒 JST
Available scratch disk space (Kbyte units) at beginning of the job is
Filesystem   1024-blocks       Used Available Capacity iused      ifree %iused  Mounted on
/dev/disk2s2  1953178672 1144748700 808429972    59%  984232 4293983047    0%   /Volumes/Users
GAMESS temporary binary files will be written to ./
GAMESS supplementary output files will be written to ./
Copying input file LiH.631g/2.1/LiH.631g.fullCI.2.1.gamess.inp to your run's scratch directory...
cp LiH.631g/2.1/LiH.631g.fullCI.2.1.gamess.inp .//LiH.631g/2.1/LiH.631g.fullCI.2.1.gamess.F05
unset echo
/Volumes/Users/maho/bin/gamess//ddikick.x /Volumes/Users/maho/bin/gamess//gamess.00.x LiH.631g/2.1/LiH.631g.fullCI.2.1.gamess -ddi 1 1 bach.ad64.riken.go.jp -scr ./

 Distributed Data Interface kickoff program.
 Initiating 1 compute processes on 1 nodes to run the following command:
 /Volumes/Users/maho/bin/gamess//gamess.00.x LiH.631g/2.1/LiH.631g.fullCI.2.1.gamess 

          ******************************************************
          *         GAMESS VERSION = 18 AUG 2016 (R1)          *
          *             FROM IOWA STATE UNIVERSITY             *
          * M.W.SCHMIDT, K.K.BALDRIDGE, J.A.BOATZ, S.T.ELBERT, *
          *   M.S.GORDON, J.H.JENSEN, S.KOSEKI, N.MATSUNAGA,   *
          *          K.A.NGUYEN, S.J.SU, T.L.WINDUS,           *
          *       TOGETHER WITH M.DUPUIS, J.A.MONTGOMERY       *
          *         J.COMPUT.CHEM.  14, 1347-1363(1993)        *
          **************** 64 BIT APPLE VERSION ****************

  SINCE 1993, STUDENTS AND POSTDOCS WORKING AT IOWA STATE UNIVERSITY
  AND ALSO IN THEIR VARIOUS JOBS AFTER LEAVING ISU HAVE MADE IMPORTANT
  CONTRIBUTIONS TO THE CODE:
     IVANA ADAMOVIC, CHRISTINE AIKENS, YURI ALEXEEV, POOJA ARORA,
     ANDREY ASADCHEV, ROB BELL, PRADIPTA BANDYOPADHYAY, JONATHAN BENTZ,
     BRETT BODE, KURT BRORSEN, CALEB CARLIN, GALINA CHABAN, WEI CHEN,
     CHEOL HO CHOI, PAUL DAY, ALBERT DEFUSCO, NUWAN DESILVA, TIM DUDLEY,
     DMITRI FEDOROV, GRAHAM FLETCHER, MARK FREITAG, KURT GLAESEMANN,
     DAN KEMP, GRANT MERRILL, NORIYUKI MINEZAWA, JONATHAN MULLIN,
     TAKESHI NAGATA, SEAN NEDD, HEATHER NETZLOFF, BOSILJKA NJEGIC, RYAN OLSON,
     MIKE PAK, SPENCER PRUITT, LUKE ROSKOP, JIM SHOEMAKER, LYUDMILA SLIPCHENKO,
     TONY SMITH, SAROM SOK LEANG, JIE SONG, TETSUYA TAKETSUGU, SIMON WEBB,
     PENG XU, SOOHAENG YOO, FEDERICO ZAHARIEV

  ADDITIONAL CODE HAS BEEN PROVIDED BY COLLABORATORS IN OTHER GROUPS:
     IOWA STATE UNIVERSITY:
          JOE IVANIC, AARON WEST, LAIMUTIS BYTAUTAS, KLAUS RUEDENBERG
     UNIVERSITY OF TOKYO: KIMIHIKO HIRAO, TAKAHITO NAKAJIMA,
          TAKAO TSUNEDA, MUNEAKI KAMIYA, SUSUMU YANAGISAWA,
          KIYOSHI YAGI, MAHITO CHIBA, SEIKEN TOKURA, NAOAKI KAWAKAMI
     UNIVERSITY OF AARHUS: FRANK JENSEN
     UNIVERSITY OF IOWA: VISVALDAS KAIRYS, HUI LI
     NATIONAL INST. OF STANDARDS AND TECHNOLOGY: WALT STEVENS, DAVID GARMER
     UNIVERSITY OF PISA: BENEDETTA MENNUCCI, JACOPO TOMASI
     UNIVERSITY OF MEMPHIS: HENRY KURTZ, PRAKASHAN KORAMBATH
     UNIVERSITY OF ALBERTA: TOBY ZENG, MARIUSZ KLOBUKOWSKI
     UNIVERSITY OF NEW ENGLAND: MARK SPACKMAN
     MIE UNIVERSITY: HIROAKI UMEDA
     NAT. INST. OF ADVANCED INDUSTRIAL SCIENCE AND TECHNOLOGY: KAZUO KITAURA
     MICHIGAN STATE UNIVERSITY:
          KAROL KOWALSKI, MARTA WLOCH, JEFFREY GOUR, JESSE LUTZ,
          WEI LI, PIOTR PIECUCH
     UNIVERSITY OF SILESIA: MONIKA MUSIAL, STANISLAW KUCHARSKI
     FACULTES UNIVERSITAIRES NOTRE-DAME DE LA PAIX:
          OLIVIER QUINET, BENOIT CHAMPAGNE
     UNIVERSITY OF CALIFORNIA - SANTA BARBARA: BERNARD KIRTMAN
     INSTITUTE FOR MOLECULAR SCIENCE:
          KAZUYA ISHIMURA, MICHIO KATOUDA, AND SHIGERU NAGASE
     UNIVERSITY OF NOTRE DAME: ANNA POMOGAEVA, DAN CHIPMAN
     KYUSHU UNIVERSITY:
          HARUYUKI NAKANO,
          FENG LONG GU, JACEK KORCHOWIEC, MARCIN MAKOWSKI, AND YURIKO AOKI,
          HIROTOSHI MORI AND EISAKU MIYOSHI
     PENNSYLVANIA STATE UNIVERSITY:
          TZVETELIN IORDANOV, CHET SWALINA, JONATHAN SKONE,
          SHARON HAMMES-SCHIFFER
     WASEDA UNIVERSITY:
          MASATO KOBAYASHI, TOMOKO AKAMA, TSUGUKI TOUMA,
          TAKESHI YOSHIKAWA, YASUHIRO IKABATA, JUNJI SEINO,
          YUYA NAKAJIMA, HIROMI NAKAI
     NANJING UNIVERSITY: SHUHUA LI
     UNIVERSITY OF NEBRASKA:
          PEIFENG SU, DEJUN SI, NANDUN THELLAMUREGE, YALI WANG, HUI LI
     UNIVERSITY OF ZURICH: ROBERTO PEVERATI, KIM BALDRIDGE
     N. COPERNICUS UNIVERSITY AND JACKSON STATE UNIVERSITY:
          MARIA BARYSZ
     UNIVERSITY OF COPENHAGEN: Jimmy Kromann, CASPER STEINMANN
     TOKYO INSTITUTE OF TECHNOLOGY: HIROYA NAKATA
     NAGOYA UNIVERSITY: YOSHIO NISHIMOTO, STEPHAN IRLE
     MOSCOW STATE UNIVERSITY: VLADIMIR MIRONOV

 EXECUTION OF GAMESS BEGUN Thu Jan 17 17:47:00 2019

            ECHO OF THE FIRST FEW INPUT CARDS -
 INPUT CARD> $CONTRL SCFTYP=RHF CITYP=ALDET $END                                            
 INPUT CARD> $GUESS  GUESS=HUCKEL $END                                                      
 INPUT CARD> $BASIS GBASIS=N31 NGAUSS=6 NDFUNC=1 NPFUNC=1 $END                              
 INPUT CARD> $CIDET SZ=0 GROUP=C2V NCORE=0 NACT=20 NELS=4 $END                              
 INPUT CARD> $DATA                                                                          
 INPUT CARD>LiH...HF...6-31G* basis                                                         
 INPUT CARD>Cnv   2                                                                         
 INPUT CARD>                                                                                
 INPUT CARD>Li    3.0    0.0      0.0     0.0                                               
 INPUT CARD>H     1.0    0.0      0.0     2.1                                               
 INPUT CARD> $END                                                                           
    1000000 WORDS OF MEMORY AVAILABLE

     BASIS OPTIONS
     -------------
     GBASIS=N31          IGAUSS=       6      POLAR=POPN31  
     NDFUNC=       1     NFFUNC=       0     DIFFSP=       F
     NPFUNC=       1      DIFFS=       F     BASNAM=        


     RUN TITLE
     ---------
 LiH...HF...6-31G* basis                                                         

 THE POINT GROUP OF THE MOLECULE IS CNV     
 THE ORDER OF THE PRINCIPAL AXIS IS     2

 ATOM      ATOMIC                      COORDINATES (BOHR)
           CHARGE         X                   Y                   Z
 LI          3.0     0.0000000000        0.0000000000        0.0000000000
 H           1.0     0.0000000000        0.0000000000        3.9684245742

          INTERNUCLEAR DISTANCES (ANGS.)
          ------------------------------

                1 LI         2 H     

   1 LI      0.0000000    2.1000000 *
   2 H       2.1000000 *  0.0000000  

  * ... LESS THAN  3.000


     ATOMIC BASIS SET
     ----------------
 THE CONTRACTED PRIMITIVE FUNCTIONS HAVE BEEN UNNORMALIZED
 THE CONTRACTED BASIS FUNCTIONS ARE NOW NORMALIZED TO UNITY

  SHELL TYPE  PRIMITIVE        EXPONENT          CONTRACTION COEFFICIENT(S)

 LI        

      1   S       1           642.4189150    0.002142607810
      1   S       2            96.7985153    0.016208871501
      1   S       3            22.0911212    0.077315572504
      1   S       4             6.2010702    0.245786052013
      1   S       5             1.9351177    0.470189004025
      1   S       6             0.6367358    0.345470845019

      2   L       7             2.3249184   -0.035091745735    0.008941508043
      2   L       8             0.6324304   -0.191232843103    0.141009464046
      2   L       9             0.0790534    1.083987794916    0.945363695309

      3   L      10             0.0359620    1.000000000000    1.000000000000

      4   D      11             0.2000000    1.000000000000

 H         

      5   S      12            18.7311370    0.033494604338
      5   S      13             2.8253944    0.234726953484
      5   S      14             0.6401217    0.813757326146

      6   S      15             0.1612778    1.000000000000

      7   P      16             1.1000000    1.000000000000

 TOTAL NUMBER OF BASIS SET SHELLS             =    7
 NUMBER OF CARTESIAN GAUSSIAN BASIS FUNCTIONS =   20
 NUMBER OF ELECTRONS                          =    4
 CHARGE OF MOLECULE                           =    0
 SPIN MULTIPLICITY                            =    1
 NUMBER OF OCCUPIED ORBITALS (ALPHA)          =    2
 NUMBER OF OCCUPIED ORBITALS (BETA )          =    2
 TOTAL NUMBER OF ATOMS                        =    2
 THE NUCLEAR REPULSION ENERGY IS        0.7559674989

 THIS MOLECULE IS RECOGNIZED AS BEING LINEAR,
 ORBITAL LZ DEGENERACY TOLERANCE ETOLLZ= 1.00E-06

     $CONTRL OPTIONS
     ---------------
 SCFTYP=RHF          RUNTYP=ENERGY       EXETYP=RUN     
 MPLEVL=       0     CITYP =ALDET        CCTYP =NONE         VBTYP =NONE    
 DFTTYP=NONE         TDDFT =NONE    
 MULT  =       1     ICHARG=       0     NZVAR =       0     COORD =UNIQUE  
 PP    =NONE         RELWFN=NONE         LOCAL =NONE         NUMGRD=       F
 ISPHER=      -1     NOSYM =       0     MAXIT =      30     UNITS =ANGS    
 PLTORB=       F     MOLPLT=       F     AIMPAC=       F     FRIEND=        
 NPRINT=       7     IREST =       0     GEOM  =INPUT   
 NORMF =       0     NORMP =       0     ITOL  =      20     ICUT  =       9
 INTTYP=BEST         GRDTYP=BEST         QMTTOL= 1.0E-06

     $SYSTEM OPTIONS
     ---------------
  REPLICATED MEMORY=     1000000 WORDS (ON EVERY NODE).
 DISTRIBUTED MEMDDI=           0 MILLION WORDS IN AGGREGATE,
 MEMDDI DISTRIBUTED OVER   1 PROCESSORS IS           0 WORDS/PROCESSOR.
 TOTAL MEMORY REQUESTED ON EACH PROCESSOR=     1000000 WORDS.
 TIMLIM=      525600.00 MINUTES, OR     365.0 DAYS.
 PARALL= F  BALTYP=  DLB     KDIAG=    0  COREFL= F
 MXSEQ2=     300 MXSEQ3=     150  mem10=         0

          ----------------
          PROPERTIES INPUT
          ----------------

     MOMENTS            FIELD           POTENTIAL          DENSITY
 IEMOM =       1   IEFLD =       0   IEPOT =       0   IEDEN =       0
 WHERE =COMASS     WHERE =NUCLEI     WHERE =NUCLEI     WHERE =NUCLEI  
 OUTPUT=BOTH       OUTPUT=BOTH       OUTPUT=BOTH       OUTPUT=BOTH    
 IEMINT=       0   IEFINT=       0                     IEDINT=       0
                                                       MORB  =       0
          EXTRAPOLATION IN EFFECT
          SOSCF IN EFFECT
 ORBITAL PRINTING OPTION: NPREO=     1    20     2     1

     -------------------------------
     INTEGRAL TRANSFORMATION OPTIONS
     -------------------------------
     NWORD  =            0
     CUTOFF = 1.0E-09     MPTRAN =       0
     DIRTRF =       F     AOINTS =DUP     

          ----------------------
          INTEGRAL INPUT OPTIONS
          ----------------------
 NOPK  =       1 NORDER=       0 SCHWRZ=       F

     ------------------------------------------
     THE POINT GROUP IS CNV, NAXIS= 2, ORDER= 4
     ------------------------------------------

     DIMENSIONS OF THE SYMMETRY SUBSPACES ARE
 A1  =   11     A2  =    1     B1  =    4     B2  =    4

 ..... DONE SETTING UP THE RUN .....
 STEP CPU TIME =     0.00 TOTAL CPU TIME =        0.0 (    0.0 MIN)
 TOTAL WALL CLOCK TIME=        0.0 SECONDS, CPU UTILIZATION IS   0.00%

          ********************
          1 ELECTRON INTEGRALS
          ********************
 ...... END OF ONE-ELECTRON INTEGRALS ......
 STEP CPU TIME =     0.00 TOTAL CPU TIME =        0.0 (    0.0 MIN)
 TOTAL WALL CLOCK TIME=        0.0 SECONDS, CPU UTILIZATION IS   0.00%

          -------------
          GUESS OPTIONS
          -------------
          GUESS =HUCKEL            NORB  =       0          NORDER=       0
          MIX   =       F          PRTMO =       F          PUNMO =       F
          TOLZ  = 1.0E-08          TOLE  = 1.0E-05
          SYMDEN=       F          PURIFY=       F

 INITIAL GUESS ORBITALS GENERATED BY HUCKEL   ROUTINE.
 HUCKEL GUESS REQUIRES      4469 WORDS.

 SYMMETRIES FOR INITIAL GUESS ORBITALS FOLLOW.   BOTH SET(S).
     2 ORBITALS ARE OCCUPIED (    1 CORE ORBITALS).
     2=A1       3=A1       4=A1       5=A1       6=A1       7=A1       8=A1  
     9=A1      10=A1      11=A1      12=A2  
 ...... END OF INITIAL ORBITAL SELECTION ......
 STEP CPU TIME =     0.00 TOTAL CPU TIME =        0.0 (    0.0 MIN)
 TOTAL WALL CLOCK TIME=        0.0 SECONDS, CPU UTILIZATION IS   0.00%

                    ----------------------
                    AO INTEGRAL TECHNOLOGY
                    ----------------------
     S,P,L SHELL ROTATED AXIS INTEGRALS, REPROGRAMMED BY
        KAZUYA ISHIMURA (IMS) AND JOSE SIERRA (SYNSTAR).
     S,P,D,L SHELL ROTATED AXIS INTEGRALS PROGRAMMED BY
        KAZUYA ISHIMURA (INSTITUTE FOR MOLECULAR SCIENCE).
     S,P,D,F,G SHELL TO TOTAL QUARTET ANGULAR MOMENTUM SUM 5,
        ERIC PROGRAM BY GRAHAM FLETCHER (ELORET AND NASA ADVANCED
        SUPERCOMPUTING DIVISION, AMES RESEARCH CENTER).
     S,P,D,F,G,L SHELL GENERAL RYS QUADRATURE PROGRAMMED BY
        MICHEL DUPUIS (PACIFIC NORTHWEST NATIONAL LABORATORY).

          --------------------
          2 ELECTRON INTEGRALS
          --------------------

 THE -PK- OPTION IS OFF, THE INTEGRALS ARE NOT IN SUPERMATRIX FORM.
 STORING   15000 INTEGRALS/RECORD ON DISK, USING 12 BYTES/INTEGRAL.
 TWO ELECTRON INTEGRAL EVALUATION REQUIRES   90424 WORDS OF MEMORY.
 II,JST,KST,LST =  1  1  1  1 NREC =         1 INTLOC =    1
 II,JST,KST,LST =  2  1  1  1 NREC =         1 INTLOC =    2
 II,JST,KST,LST =  3  1  1  1 NREC =         1 INTLOC =   34
 II,JST,KST,LST =  4  1  1  1 NREC =         1 INTLOC =  214
 II,JST,KST,LST =  5  1  1  1 NREC =         1 INTLOC = 1189
 II,JST,KST,LST =  6  1  1  1 NREC =         1 INTLOC = 1867
 II,JST,KST,LST =  7  1  1  1 NREC =         1 INTLOC = 2713
 TOTAL NUMBER OF NONZERO TWO-ELECTRON INTEGRALS =                5596
          1 INTEGRAL RECORDS WERE STORED ON DISK FILE  8.
  ...... END OF TWO-ELECTRON INTEGRALS .....
 STEP CPU TIME =     0.02 TOTAL CPU TIME =        0.0 (    0.0 MIN)
 TOTAL WALL CLOCK TIME=        0.0 SECONDS, CPU UTILIZATION IS  66.67%

          --------------------------
                 RHF SCF CALCULATION
          --------------------------

     NUCLEAR ENERGY =         0.7559674989
     MAXIT =   30     NPUNCH=    2
     EXTRAP=T  DAMP=F  SHIFT=F  RSTRCT=F  DIIS=F  DEM=F  SOSCF=T
     DENSITY MATRIX CONV=  1.00E-06
     SOSCF WILL OPTIMIZE      36 ORBITAL ROTATIONS, SOGTOL=   0.250
     MEMORY REQUIRED FOR RHF ITERS=     33224 WORDS.

 ITER EX DEM     TOTAL ENERGY        E CHANGE  DENSITY CHANGE     ORB. GRAD
   1  0  0       -7.8136970829    -7.8136970829   0.423745985   0.000000000
          ---------------START SECOND ORDER SCF---------------
   2  1  0       -7.9565259848    -0.1428289019   0.079417779   0.023764314
   3  2  0       -7.9641805061    -0.0076545212   0.017853102   0.008509326
   4  3  0       -7.9646339477    -0.0004534417   0.002148401   0.000533059
   5  4  0       -7.9646383048    -0.0000043570   0.000324380   0.000161834
   6  5  0       -7.9646384182    -0.0000001134   0.000041959   0.000011209
   7  6  0       -7.9646384186    -0.0000000004   0.000008939   0.000001483
   8  7  0       -7.9646384186    -0.0000000000   0.000000127   0.000000036
   9  8  0       -7.9646384186    -0.0000000000   0.000000000   0.000000007

          -----------------
          DENSITY CONVERGED
          -----------------
     TIME TO FORM FOCK OPERATORS=       0.0 SECONDS (       0.0 SEC/ITER)
     TIME TO SOLVE SCF EQUATIONS=       0.0 SECONDS (       0.0 SEC/ITER)

 FINAL RHF ENERGY IS       -7.9646384186 AFTER   9 ITERATIONS

 LZ VALUE ANALYSIS FOR THE MOS
 ----------------------------------------
 MO     1 (    1) HAS LZ(WEIGHT)= 0.00(100.0%) 
 MO     2 (    2) HAS LZ(WEIGHT)= 0.00(100.0%) 
 MO     3 (    3) HAS LZ(WEIGHT)= 0.00(100.0%) 
 MO     4 (    4) HAS LZ(WEIGHT)=-1.00( 50.0%)  1.00( 50.0%) 
 MO     5 (    4) HAS LZ(WEIGHT)=-1.00( 50.0%)  1.00( 50.0%) 
 MO     6 (    5) HAS LZ(WEIGHT)= 0.00(100.0%) 
 MO     7 (    6) HAS LZ(WEIGHT)= 0.00(100.0%) 
 MO     8 (    7) HAS LZ(WEIGHT)=-1.00( 50.0%)  1.00( 50.0%) 
 MO     9 (    7) HAS LZ(WEIGHT)=-1.00( 50.0%)  1.00( 50.0%) 
 MO    10 (    8) HAS LZ(WEIGHT)= 0.00(100.0%) 
 MO    11 (    9) HAS LZ(WEIGHT)=-2.00( 50.0%)  2.00( 50.0%) 
 MO    12 (    9) HAS LZ(WEIGHT)=-2.00( 50.0%)  2.00( 50.0%) 
 MO    13 (   10) HAS LZ(WEIGHT)=-1.00( 50.0%)  1.00( 50.0%) 
 MO    14 (   10) HAS LZ(WEIGHT)=-1.00( 50.0%)  1.00( 50.0%) 
 MO    15 (   11) HAS LZ(WEIGHT)= 0.00(100.0%) 
 MO    16 (   12) HAS LZ(WEIGHT)= 0.00(100.0%) 
 MO    17 (   13) HAS LZ(WEIGHT)= 0.00(100.0%) 
 MO    18 (   14) HAS LZ(WEIGHT)=-1.00( 50.0%)  1.00( 50.0%) 
 MO    19 (   14) HAS LZ(WEIGHT)=-1.00( 50.0%)  1.00( 50.0%) 
 MO    20 (   15) HAS LZ(WEIGHT)= 0.00(100.0%) 

          ------------
          EIGENVECTORS
          ------------

                      1          2          3          4          5
                   -2.4897    -0.2717    -0.0030     0.0533     0.0533
                     A1         A1         A1         B1         B2  
    1  LI 1  S    0.998698  -0.098788  -0.147890  -0.000000  -0.000000
    2  LI 1  S   -0.010797   0.115150  -0.283989  -0.000000  -0.000000
    3  LI 1  X    0.000000  -0.000000  -0.000000   0.059281  -0.000000
    4  LI 1  Y    0.000000  -0.000000  -0.000000  -0.000000   0.059281
    5  LI 1  Z   -0.008114   0.169183  -0.176545  -0.000000  -0.000000
    6  LI 1  S    0.000453   0.253272   0.903460  -0.000000  -0.000000
    7  LI 1  X    0.000000  -0.000000  -0.000000   0.951142  -0.000000
    8  LI 1  Y    0.000000  -0.000000  -0.000000  -0.000000   0.951142
    9  LI 1  Z    0.004471   0.074142  -0.489781  -0.000000  -0.000000
   10  LI 1 XX    0.009034   0.004180   0.062779  -0.000000  -0.000000
   11  LI 1 YY    0.009034   0.004180   0.062779  -0.000000  -0.000000
   12  LI 1 ZZ    0.007778   0.041525   0.072252  -0.000000  -0.000000
   13  LI 1 XY    0.000000  -0.000000  -0.000000  -0.000000  -0.000000
   14  LI 1 XZ    0.000000  -0.000000  -0.000000  -0.033111  -0.000000
   15  LI 1 YZ    0.000000  -0.000000  -0.000000  -0.000000  -0.033111
   16  H  2  S    0.000364   0.265993  -0.062262  -0.000000  -0.000000
   17  H  2  S    0.002697   0.457177  -0.071904  -0.000000  -0.000000
   18  H  2  X    0.000000  -0.000000  -0.000000   0.003263  -0.000000
   19  H  2  Y    0.000000  -0.000000  -0.000000  -0.000000   0.003263
   20  H  2  Z   -0.000449  -0.005285   0.000166  -0.000000  -0.000000

                      6          7          8          9         10
                    0.1479     0.1877     0.2091     0.2091     0.2667
                     A1         A1         B1         B2         A1  
    1  LI 1  S   -0.071857   0.086067   0.000000   0.000000  -0.008667
    2  LI 1  S    0.287682   2.875988   0.000000   0.000000   1.503516
    3  LI 1  X   -0.000000   0.000000   1.668221   0.000000   0.000000
    4  LI 1  Y   -0.000000   0.000000   0.000000   1.668221   0.000000
    5  LI 1  Z   -0.725112  -0.697465   0.000000   0.000000   1.386437
    6  LI 1  S    0.333561  -2.402602   0.000000   0.000000  -0.758134
    7  LI 1  X   -0.000000   0.000000  -1.376031   0.000000   0.000000
    8  LI 1  Y   -0.000000   0.000000   0.000000  -1.376031   0.000000
    9  LI 1  Z    1.447459   0.196906   0.000000   0.000000  -0.705916
   10  LI 1 XX    0.004092  -0.301914   0.000000   0.000000  -0.036344
   11  LI 1 YY    0.004092  -0.301914   0.000000   0.000000  -0.036344
   12  LI 1 ZZ    0.002864  -0.242049   0.000000   0.000000  -0.256279
   13  LI 1 XY   -0.000000   0.000000   0.000000   0.000000   0.000000
   14  LI 1 XZ   -0.000000   0.000000  -0.076050   0.000000   0.000000
   15  LI 1 YZ   -0.000000   0.000000   0.000000  -0.076050   0.000000
   16  H  2  S   -0.094676   0.037479   0.000000   0.000000  -0.087409
   17  H  2  S   -0.678966   0.367983   0.000000   0.000000  -0.668931
   18  H  2  X   -0.000000   0.000000   0.002173   0.000000   0.000000
   19  H  2  Y   -0.000000   0.000000   0.000000   0.002173   0.000000
   20  H  2  Z    0.002268  -0.004514   0.000000   0.000000  -0.016745

                     11         12         13         14         15
                    0.5610     0.5610     0.5660     0.5660     0.6792
                     A2         A1         B2         B1         A1  
    1  LI 1  S    0.000000  -0.000000  -0.000000  -0.000000  -0.025154
    2  LI 1  S    0.000000  -0.000000  -0.000000  -0.000000  -0.231643
    3  LI 1  X    0.000000  -0.000000  -0.000000   0.127420  -0.000000
    4  LI 1  Y    0.000000  -0.000000   0.127420  -0.000000  -0.000000
    5  LI 1  Z    0.000000  -0.000000  -0.000000  -0.000000   0.566504
    6  LI 1  S    0.000000  -0.000000  -0.000000  -0.000000   0.394920
    7  LI 1  X    0.000000  -0.000000  -0.000000  -0.073375  -0.000000
    8  LI 1  Y    0.000000  -0.000000  -0.073375  -0.000000  -0.000000
    9  LI 1  Z    0.000000  -0.000000  -0.000000  -0.000000   0.072957
   10  LI 1 XX    0.000000  -0.866025  -0.000000  -0.000000  -0.437594
   11  LI 1 YY    0.000000   0.866025  -0.000000  -0.000000  -0.437594
   12  LI 1 ZZ    0.000000  -0.000000  -0.000000  -0.000000   1.283322
   13  LI 1 XY    1.000000  -0.000000  -0.000000  -0.000000  -0.000000
   14  LI 1 XZ    0.000000  -0.000000  -0.000000   0.993868  -0.000000
   15  LI 1 YZ    0.000000  -0.000000   0.993868  -0.000000  -0.000000
   16  H  2  S    0.000000  -0.000000  -0.000000  -0.000000   0.029686
   17  H  2  S    0.000000  -0.000000  -0.000000  -0.000000  -1.004729
   18  H  2  X    0.000000  -0.000000  -0.000000   0.025844  -0.000000
   19  H  2  Y    0.000000  -0.000000   0.025844  -0.000000  -0.000000
   20  H  2  Z    0.000000  -0.000000  -0.000000  -0.000000  -0.024263

                     16         17         18         19         20
                    1.1838     1.3005     2.4873     2.4873     2.6897
                     A1         A1         B1         B2         A1  
    1  LI 1  S    0.093654   0.058472  -0.000000  -0.000000  -0.018601
    2  LI 1  S    8.489746   4.168974  -0.000000  -0.000000  -0.676149
    3  LI 1  X    0.000000  -0.000000  -0.060564  -0.000000   0.000000
    4  LI 1  Y    0.000000  -0.000000  -0.000000  -0.060564   0.000000
    5  LI 1  Z    0.004978   0.212345  -0.000000  -0.000000   0.395746
    6  LI 1  S   -2.709452  -0.945833  -0.000000  -0.000000   0.267027
    7  LI 1  X    0.000000  -0.000000   0.002491  -0.000000   0.000000
    8  LI 1  Y    0.000000  -0.000000  -0.000000   0.002491   0.000000
    9  LI 1  Z   -0.081802   0.240570  -0.000000  -0.000000  -0.094669
   10  LI 1 XX   -2.862377  -1.407396  -0.000000  -0.000000   0.148749
   11  LI 1 YY   -2.862377  -1.407396  -0.000000  -0.000000   0.148749
   12  LI 1 ZZ   -2.753744  -1.293054  -0.000000  -0.000000   0.649351
   13  LI 1 XY    0.000000  -0.000000  -0.000000  -0.000000   0.000000
   14  LI 1 XZ    0.000000  -0.000000  -0.118287  -0.000000   0.000000
   15  LI 1 YZ    0.000000  -0.000000  -0.000000  -0.118287   0.000000
   16  H  2  S   -0.547148   1.258783  -0.000000  -0.000000   0.099268
   17  H  2  S    0.461542  -1.474421  -0.000000  -0.000000  -0.460011
   18  H  2  X    0.000000  -0.000000   1.005366  -0.000000   0.000000
   19  H  2  Y    0.000000  -0.000000  -0.000000   1.005366   0.000000
   20  H  2  Z    0.010392  -0.028061  -0.000000  -0.000000   1.054167
 ...... END OF RHF CALCULATION ......
 STEP CPU TIME =     0.01 TOTAL CPU TIME =        0.0 (    0.0 MIN)
 TOTAL WALL CLOCK TIME=        0.0 SECONDS, CPU UTILIZATION IS  75.00%

     ----------------------------------------------------------------
     PROPERTY VALUES FOR THE RHF   SELF-CONSISTENT FIELD WAVEFUNCTION
     ----------------------------------------------------------------

          -----------------
          ENERGY COMPONENTS
          -----------------

         WAVEFUNCTION NORMALIZATION =       1.0000000000

                ONE ELECTRON ENERGY =     -11.9184114842
                TWO ELECTRON ENERGY =       3.1978055667
           NUCLEAR REPULSION ENERGY =       0.7559674989
                                      ------------------
                       TOTAL ENERGY =      -7.9646384186

 ELECTRON-ELECTRON POTENTIAL ENERGY =       3.1978055667
  NUCLEUS-ELECTRON POTENTIAL ENERGY =     -19.7886112440
   NUCLEUS-NUCLEUS POTENTIAL ENERGY =       0.7559674989
                                      ------------------
             TOTAL POTENTIAL ENERGY =     -15.8348381784
               TOTAL KINETIC ENERGY =       7.8701997598
                 VIRIAL RATIO (V/T) =       2.0119995250

  ...... PI ENERGY ANALYSIS ......

 ENERGY ANALYSIS:
            FOCK ENERGY=     -5.5228003562
          BARE H ENERGY=    -11.9184114842
     ELECTRONIC ENERGY =     -8.7206059202
         KINETIC ENERGY=      7.8701997598
          N-N REPULSION=      0.7559674989
           TOTAL ENERGY=     -7.9646384213
        SIGMA PART(1+2)=     -8.7206059202
               (K,V1,2)=      7.8701997598    -19.7886112440      3.1978055640
           PI PART(1+2)=      0.0000000000
               (K,V1,2)=      0.0000000000      0.0000000000      0.0000000000
  SIGMA SKELETON, ERROR=     -7.9646384213      0.0000000000
             MIXED PART= 0.00000E+00 0.00000E+00 0.00000E+00 0.00000E+00
 ...... END OF PI ENERGY ANALYSIS ......

          ---------------------------------------
          MULLIKEN AND LOWDIN POPULATION ANALYSES
          ---------------------------------------

               ----- POPULATIONS IN EACH AO -----
                             MULLIKEN      LOWDIN
              1  LI 1  S      1.99818     1.98184
              2  LI 1  S      0.13379     0.15640
              3  LI 1  X      0.00000     0.00000
              4  LI 1  Y      0.00000     0.00000
              5  LI 1  Z      0.19193     0.20420
              6  LI 1  S      0.30730     0.24635
              7  LI 1  X      0.00000     0.00000
              8  LI 1  Y      0.00000     0.00000
              9  LI 1  Z      0.07565     0.12957
             10  LI 1 XX      0.00460     0.02844
             11  LI 1 YY      0.00460     0.02844
             12  LI 1 ZZ      0.04976     0.13540
             13  LI 1 XY      0.00000     0.00000
             14  LI 1 XZ      0.00000     0.00000
             15  LI 1 YZ      0.00000     0.00000
             16  H  2  S      0.37296     0.38606
             17  H  2  S      0.86077     0.70313
             18  H  2  X      0.00000     0.00000
             19  H  2  Y      0.00000     0.00000
             20  H  2  Z      0.00044     0.00018

          ----- MULLIKEN ATOMIC OVERLAP POPULATIONS -----
          (OFF-DIAGONAL ELEMENTS NEED TO BE MULTIPLIED BY 2)

             1           2

    1    2.4114658
    2    0.3543629   0.8798085

          TOTAL MULLIKEN AND LOWDIN ATOMIC POPULATIONS
       ATOM         MULL.POP.    CHARGE          LOW.POP.     CHARGE
    1 LI            2.765829    0.234171         2.910630    0.089370
    2 H             1.234171   -0.234171         1.089370   -0.089370

          ---------------------
          ELECTROSTATIC MOMENTS
          ---------------------

 POINT   1           X           Y           Z (BOHR)    CHARGE
                 0.000000    0.000000    0.498450        0.00 (A.U.)
         DX          DY          DZ         /D/  (DEBYE)
     0.000000    0.000000   -7.001966    7.001966
 ...... END OF PROPERTY EVALUATION ......
 STEP CPU TIME =     0.01 TOTAL CPU TIME =        0.0 (    0.0 MIN)
 TOTAL WALL CLOCK TIME=        0.0 SECONDS, CPU UTILIZATION IS  80.00%

 DETERMINANT CI OPTIONS   NRNFG   NPFLG
 INTEGRAL TRANSFORMATION    1       0
 DIAGONALIZE HAMILTONIAN    1       0
 FORM 1E- DENSITY MATRIX    1       0
 FORM 2E- DENSITY MATRIX    0       0

     --------------------------------------------------
          AMES LABORATORY DETERMINANTAL FULL CI
     PROGRAM WRITTEN BY JOE IVANIC AND KLAUS RUEDENBERG
     --------------------------------------------------

 THE POINT GROUP                  =   C2V     
 THE STATE SYMMETRY               =   A1      
 NUMBER OF CORE ORBITALS          =    0
 NUMBER OF ACTIVE ORBITALS        =   20
 NUMBER OF ALPHA ELECTRONS        =    2 (   2 ACTIVE)
 NUMBER OF BETA ELECTRONS         =    2 (   2 ACTIVE)
 NUMBER OF OCCUPIED ORBITALS      =   20
 NUMBER OF CI STATES REQUESTED    =    1
 NUMBER OF CI STARTING VECTORS    =    1
 MAX. NO. OF CI EXPANSION VECTORS =   10
 SIZE OF INITIAL CI GUESS MATRIX  =  300
 MAX. NO. OF CI ITERS/STATE       =  100
 CI DIAGONALIZATION CRITERION     = 1.00E-06
 CI PROPERTIES WILL BE FOUND FOR ROOT NUMBER   1
 1E- DENSITY MATRIX OPTIONS ARE 1

 CORRELATION ENERGY ANALYSIS      =    F

 SYMMETRIES FOR THE   0 CORE,  20 ACTIVE ARE

   ACTIVE= A1    A1    A1    B1    B2    A1    A1    B1    B2    A1  
           A2    A1    B2    B1    A1    A1    A1    B1    B2    A1  

     --------------------------------------------
     PARTIAL TWO ELECTRON INTEGRAL TRANSFORMATION
     --------------------------------------------

 NUMBER OF CORE MOLECULAR ORBITALS     =    0
 NUMBER OF OCCUPIED MOLECULAR ORBITALS =   20
 TOTAL NUMBER OF MOLECULAR ORBITALS    =   20
 TOTAL NUMBER OF ATOMIC ORBITALS       =   20
 THRESHOLD FOR KEEPING TRANSFORMED 2E- INTEGRALS = 1.000E-09
 AO INTEGRALS WILL BE READ IN FROM DISK...

 PLAN A: REQUIREMENTS FOR FULLY IN-MEMORY TRANSFORMATION:
 # OF WORDS AVAILABLE =              1000000
 # OF WORDS NEEDED    =               146042

 CHOOSING IN MEMORY PARTIAL TRANSFORMATION...
 TOTAL NUMBER OF TRANSFORMED 2E- INTEGRALS KEPT =         5962
 ... END OF INTEGRAL TRANSFORMATION ...
 STEP CPU TIME =     0.00 TOTAL CPU TIME =        0.0 (    0.0 MIN)
 TOTAL WALL CLOCK TIME=        0.0 SECONDS, CPU UTILIZATION IS  80.00%

     --------------------------------------------------
          AMES LABORATORY DETERMINANTAL FULL CI
     PROGRAM WRITTEN BY JOE IVANIC AND KLAUS RUEDENBERG
     --------------------------------------------------

 THE NUMBER OF DETERMINANTS HAVING SPACE SYMMETRY A1 
 IN POINT GROUP C2V  WITH SZ=  0.0 IS           9826
 THE DETERMINANT FULL CI REQUIRES          451749 WORDS
 INITIAL CI VECTOR GUESS TIME  :          0.0
 INITIAL FULL CI ITERATION TIME:          0.0

 ITERATION      ENERGY           GRADIENT
     0       -7.9909811764     0.11863093
     1       -7.9938353217     0.00837372
     2       -7.9939081655     0.00384206
     3       -7.9939172061     0.00109120
     4       -7.9939188987     0.00055413
     5       -7.9939192743     0.00022286
     6       -7.9939193104     0.00005739
     7       -7.9939193130     0.00001559
     8       -7.9939193132     0.00000426
     9       -7.9939193133     0.00000097

 CONVERGED STATE    1 ENERGY=       -7.9939193133 IN    9 ITERS

 ALL STATES CONVERGED.

 CI EIGENVECTORS WILL BE LABELED IN GROUP=C2V     
 PRINTING CI COEFFICIENTS LARGER THAN 5.000E-02

 STATE   1  ENERGY=        -7.9939193133  S=  0.00  SZ=  0.00  SPACE SYM=A1  

        ALPHA         |        BETA          | CI COEFFICIENT
----------------------|----------------------|---------------
 11000000000000000000 | 11000000000000000000 |   0.9789266718
 10000000010000000000 | 10000000010000000000 |  -0.0680475963
 10000100000000000000 | 10000100000000000000 |  -0.0680289391
 10100000000000000000 | 10000100000000000000 |  -0.0516426352
 10000100000000000000 | 10100000000000000000 |  -0.0516426352
 ..... DONE WITH DETERMINANT CI COMPUTATION .....
 STEP CPU TIME =     0.22 TOTAL CPU TIME =        0.3 (    0.0 MIN)
 TOTAL WALL CLOCK TIME=        0.3 SECONDS, CPU UTILIZATION IS  78.79%

     ---------------------------
     ONE PARTICLE DENSITY MATRIX
     ---------------------------

 DENSITY MATRIX WILL BE SAVED FOR   1-TH STATE WITH S= 0.00

 CI EIGENSTATE   1 TOTAL ENERGY =       -7.9939193133

          NATURAL ORBITALS IN ATOMIC ORBITAL BASIS
          ----------------------------------------

                      1          2          3          4          5
                    1.9998     1.9273     0.0633     0.0043     0.0020
                     A1         A1         A1         A1         B1  
    1  LI 1  S    0.998891  -0.103009   0.134692   0.039570   0.000000
    2  LI 1  S   -0.007241   0.144554  -0.447607   0.756903   0.000000
    3  LI 1  X   -0.000000   0.000000   0.000000  -0.000000   0.707079
    4  LI 1  Y   -0.000000   0.000000   0.000000  -0.000000   0.000000
    5  LI 1  Z   -0.007887   0.162329  -0.365645   1.127822   0.000000
    6  LI 1  S   -0.001395   0.272685  -0.493735  -0.758910   0.000000
    7  LI 1  X   -0.000000   0.000000   0.000000  -0.000000  -0.014206
    8  LI 1  Y   -0.000000   0.000000   0.000000  -0.000000   0.000000
    9  LI 1  Z    0.004129   0.064424  -0.121240  -0.725058   0.000000
   10  LI 1 XX    0.008047   0.006254   0.015143  -0.127033   0.000000
   11  LI 1 YY    0.008047   0.006254   0.015143  -0.127033   0.000000
   12  LI 1 ZZ    0.006949   0.036576  -0.063711   0.627577   0.000000
   13  LI 1 XY   -0.000000   0.000000   0.000000  -0.000000   0.000000
   14  LI 1 XZ   -0.000000   0.000000   0.000000  -0.000000   0.537102
   15  LI 1 YZ   -0.000000   0.000000   0.000000  -0.000000   0.000000
   16  H  2  S   -0.000437   0.283223   0.550850   0.374627   0.000000
   17  H  2  S    0.001217   0.422930   0.534843  -0.871187   0.000000
   18  H  2  X   -0.000000   0.000000   0.000000  -0.000000   0.398426
   19  H  2  Y   -0.000000   0.000000   0.000000  -0.000000   0.000000
   20  H  2  Z   -0.000402  -0.003908   0.008941  -0.297288   0.000000

                      6          7          8          9         10
                    0.0020     0.0006     0.0002     0.0002     0.0001
                     B2         A1         B2         B1         A1  
    1  LI 1  S    0.000000   0.049144   0.000000   0.000000   0.042738
    2  LI 1  S    0.000000  -0.286763   0.000000   0.000000   2.616356
    3  LI 1  X    0.000000   0.000000   0.000000  -0.541725  -0.000000
    4  LI 1  Y    0.707079   0.000000  -0.541725   0.000000  -0.000000
    5  LI 1  Z    0.000000   0.232541   0.000000   0.000000   0.687048
    6  LI 1  S    0.000000  -0.532985   0.000000   0.000000  -1.335428
    7  LI 1  X    0.000000   0.000000   0.000000   0.106740  -0.000000
    8  LI 1  Y   -0.014206   0.000000   0.106740   0.000000  -0.000000
    9  LI 1  Z    0.000000  -0.361060   0.000000   0.000000  -0.586327
   10  LI 1 XX    0.000000   0.001077   0.000000   0.000000  -0.587414
   11  LI 1 YY    0.000000   0.001077   0.000000   0.000000  -0.587414
   12  LI 1 ZZ    0.000000   0.250315   0.000000   0.000000  -0.433624
   13  LI 1 XY    0.000000   0.000000   0.000000   0.000000  -0.000000
   14  LI 1 XZ    0.000000   0.000000   0.000000  -0.196948  -0.000000
   15  LI 1 YZ    0.537102   0.000000  -0.196948   0.000000  -0.000000
   16  H  2  S    0.000000  -1.148511   0.000000   0.000000   0.068914
   17  H  2  S    0.000000   1.317068   0.000000   0.000000  -0.243962
   18  H  2  X    0.000000   0.000000   0.000000   0.908765  -0.000000
   19  H  2  Y    0.398426   0.000000   0.908765   0.000000  -0.000000
   20  H  2  Z    0.000000  -0.014610   0.000000   0.000000   0.894996

                     11         12         13         14         15
                    0.0001     0.0000     0.0000     0.0000     0.0000
                     A1         B2         B1         A1         A1  
    1  LI 1  S    0.102372  -0.000000  -0.000000   0.069750  -0.007477
    2  LI 1  S    7.996616  -0.000000  -0.000000   5.342445  -0.284987
    3  LI 1  X   -0.000000  -0.000000  -1.414894  -0.000000  -0.000000
    4  LI 1  Y   -0.000000  -1.414894  -0.000000  -0.000000  -0.000000
    5  LI 1  Z   -0.851649  -0.000000  -0.000000   0.845095  -0.308883
    6  LI 1  S   -3.245083  -0.000000  -0.000000  -0.933116   0.323260
    7  LI 1  X   -0.000000  -0.000000   1.484352  -0.000000  -0.000000
    8  LI 1  Y   -0.000000   1.484352  -0.000000  -0.000000  -0.000000
    9  LI 1  Z    0.303394  -0.000000  -0.000000  -0.047653   1.110121
   10  LI 1 XX   -2.302289  -0.000000  -0.000000  -2.133843  -0.325902
   11  LI 1 YY   -2.302289  -0.000000  -0.000000  -2.133843  -0.325902
   12  LI 1 ZZ   -2.331644  -0.000000  -0.000000  -2.007501   1.100900
   13  LI 1 XY   -0.000000  -0.000000  -0.000000  -0.000000  -0.000000
   14  LI 1 XZ   -0.000000  -0.000000   0.394136  -0.000000  -0.000000
   15  LI 1 YZ   -0.000000   0.394136  -0.000000  -0.000000  -0.000000
   16  H  2  S   -0.163788  -0.000000  -0.000000   0.230900   0.211452
   17  H  2  S    0.476696  -0.000000  -0.000000  -0.737097  -1.032049
   18  H  2  X   -0.000000  -0.000000  -0.119171  -0.000000  -0.000000
   19  H  2  Y   -0.000000  -0.119171  -0.000000  -0.000000  -0.000000
   20  H  2  Z   -0.294129  -0.000000  -0.000000  -0.069262   0.345595

                     16         17         18         19         20
                    0.0000     0.0000     0.0000     0.0000     0.0000
                     B1         B2         A1         A2         A1  
    1  LI 1  S    0.000000   0.000000  -0.000000   0.000000  -0.084251
    2  LI 1  S    0.000000   0.000000  -0.000001   0.000000  -0.620535
    3  LI 1  X   -0.105018   0.000000   0.000000   0.000000  -0.000000
    4  LI 1  Y    0.000000  -0.105018   0.000000   0.000000  -0.000000
    5  LI 1  Z    0.000000   0.000000  -0.000000   0.000000   0.154488
    6  LI 1  S    0.000000   0.000000   0.000001   0.000000   1.155259
    7  LI 1  X    0.767220   0.000000   0.000000   0.000000  -0.000000
    8  LI 1  Y    0.000000   0.767220   0.000000   0.000000  -0.000000
    9  LI 1  Z    0.000000   0.000000  -0.000000   0.000000  -0.781710
   10  LI 1 XX    0.000000   0.000000   0.866025   0.000000  -0.403177
   11  LI 1 YY    0.000000   0.000000  -0.866025   0.000000  -0.403176
   12  LI 1 ZZ    0.000000   0.000000   0.000000   0.000000   0.355465
   13  LI 1 XY    0.000000   0.000000   0.000000   1.000000  -0.000000
   14  LI 1 XZ   -0.725283   0.000000   0.000000   0.000000  -0.000000
   15  LI 1 YZ    0.000000  -0.725283   0.000000   0.000000  -0.000000
   16  H  2  S    0.000000   0.000000  -0.000000   0.000000  -0.120841
   17  H  2  S    0.000000   0.000000   0.000000   0.000000   0.111056
   18  H  2  X    0.112447   0.000000   0.000000   0.000000  -0.000000
   19  H  2  Y    0.000000   0.112447   0.000000   0.000000  -0.000000
   20  H  2  Z    0.000000   0.000000   0.000000   0.000000   0.112410
 ..... DONE WITH ONE PARTICLE DENSITY MATRIX .....
 STEP CPU TIME =     0.00 TOTAL CPU TIME =        0.3 (    0.0 MIN)
 TOTAL WALL CLOCK TIME=        0.3 SECONDS, CPU UTILIZATION IS  78.79%

     --------------------------------------------------------
     ALDET CI PROPERTIES...FOR THE WAVEFUNCTION OF STATE    1
               USING THE EXPECTATION VALUE DENSITY
     --------------------------------------------------------

          -----------------
          ENERGY COMPONENTS
          -----------------

         WAVEFUNCTION NORMALIZATION =       1.0000000000

                ONE ELECTRON ENERGY =     -11.8961864678
                TWO ELECTRON ENERGY =       3.1462996557
           NUCLEAR REPULSION ENERGY =       0.7559674989
                                      ------------------
                       TOTAL ENERGY =      -7.9939193133

 ELECTRON-ELECTRON POTENTIAL ENERGY =       3.1462996557
  NUCLEUS-ELECTRON POTENTIAL ENERGY =     -19.8160416306
   NUCLEUS-NUCLEUS POTENTIAL ENERGY =       0.7559674989
                                      ------------------
             TOTAL POTENTIAL ENERGY =     -15.9137744760
               TOTAL KINETIC ENERGY =       7.9198551627
                 VIRIAL RATIO (V/T) =       2.0093517052

          ---------------------------------------
          MULLIKEN AND LOWDIN POPULATION ANALYSES
          ---------------------------------------

               ----- POPULATIONS IN EACH AO -----
                             MULLIKEN      LOWDIN
              1  LI 1  S      1.99810     1.98262
              2  LI 1  S      0.19049     0.18360
              3  LI 1  X      0.00107     0.00085
              4  LI 1  Y      0.00107     0.00085
              5  LI 1  Z      0.16911     0.17667
              6  LI 1  S      0.35401     0.28156
              7  LI 1  X     -0.00001     0.00021
              8  LI 1  Y     -0.00001     0.00021
              9  LI 1  Z      0.06031     0.10786
             10  LI 1 XX      0.00540     0.03961
             11  LI 1 YY      0.00540     0.03961
             12  LI 1 ZZ      0.04533     0.13719
             13  LI 1 XY      0.00000     0.00000
             14  LI 1 XZ      0.00063     0.00063
             15  LI 1 YZ      0.00063     0.00063
             16  H  2  S      0.40261     0.40334
             17  H  2  S      0.76360     0.64213
             18  H  2  X      0.00056     0.00056
             19  H  2  Y      0.00056     0.00056
             20  H  2  Z      0.00113     0.00130

          ----- MULLIKEN ATOMIC OVERLAP POPULATIONS -----
          (OFF-DIAGONAL ELEMENTS NEED TO BE MULTIPLIED BY 2)

             1           2

    1    2.5324394
    2    0.2991057   0.8693493

          TOTAL MULLIKEN AND LOWDIN ATOMIC POPULATIONS
       ATOM         MULL.POP.    CHARGE          LOW.POP.     CHARGE
    1 LI            2.831545    0.168455         2.952112    0.047888
    2 H             1.168455   -0.168455         1.047888   -0.047888

          ---------------------
          ELECTROSTATIC MOMENTS
          ---------------------

 POINT   1           X           Y           Z (BOHR)    CHARGE
                 0.000000    0.000000    0.498450       -0.00 (A.U.)
         DX          DY          DZ         /D/  (DEBYE)
     0.000000    0.000000   -6.256724    6.256724
 ...... END OF PROPERTY EVALUATION ......
 STEP CPU TIME =     0.00 TOTAL CPU TIME =        0.3 (    0.0 MIN)
 TOTAL WALL CLOCK TIME=        0.3 SECONDS, CPU UTILIZATION IS  78.79%
               580000  WORDS OF DYNAMIC MEMORY USED
 EXECUTION OF GAMESS TERMINATED NORMALLY Thu Jan 17 17:47:00 2019
 DDI: 263640 bytes (0.3 MB / 0 MWords) used by master data server.

 ----------------------------------------
 CPU timing information for all processes
 ========================================
 0: 0.218 + 0.56 = 0.275
 1: 0.09 + 0.44 = 0.54
 ----------------------------------------
 ddikick.x: exited gracefully.
unset echo
----- accounting info -----
Files used on the master node bach.ad64.riken.go.jp were:
-rw-------  1 maho  staff      280  1 17 17:47 .//LiH.631g/2.1/LiH.631g.fullCI.2.1.gamess.F05
-rw-r--r--  1 maho  staff   180016  1 17 17:47 .//LiH.631g/2.1/LiH.631g.fullCI.2.1.gamess.F08
-rw-r--r--  1 maho  staff   181704  1 17 17:47 .//LiH.631g/2.1/LiH.631g.fullCI.2.1.gamess.F09
-rw-r--r--  1 maho  staff  1832320  1 17 17:47 .//LiH.631g/2.1/LiH.631g.fullCI.2.1.gamess.F10
-rw-r--r--  1 maho  staff    78640  1 17 17:47 .//LiH.631g/2.1/LiH.631g.fullCI.2.1.gamess.F12
-rw-r--r--  1 maho  staff    14499  1 17 17:47 .//LiH.631g/2.1/LiH.631g.fullCI.2.1.gamess.dat
-rw-------  1 maho  staff      280  1 17 17:47 .//LiH.631g/2.1/LiH.631g.fullCI.2.1.gamess.inp
-rw-r--r--  1 maho  staff    42638  1 17 17:47 .//LiH.631g/2.1/LiH.631g.fullCI.2.1.gamess.log
ls: No match.
ls: No match.
ls: No match.
2019年 1月17日 木曜日 17時47分03秒 JST
0.339u 0.202s 0:03.55 14.9%	0+0k 1+1io 0pf+0w
