----- GAMESS execution script 'rungms' -----
This job is running on host bach.ad64.riken.go.jp
under operating system Darwin at 2019年 1月17日 木曜日 17時46分18秒 JST
Available scratch disk space (Kbyte units) at beginning of the job is
Filesystem   1024-blocks       Used Available Capacity iused      ifree %iused  Mounted on
/dev/disk2s2  1953178672 1144741248 808437424    59%  984151 4293983128    0%   /Volumes/Users
GAMESS temporary binary files will be written to ./
GAMESS supplementary output files will be written to ./
Copying input file LiH.631g/1.8/LiH.631g.fullCI.1.8.gamess.inp to your run's scratch directory...
cp LiH.631g/1.8/LiH.631g.fullCI.1.8.gamess.inp .//LiH.631g/1.8/LiH.631g.fullCI.1.8.gamess.F05
unset echo
/Volumes/Users/maho/bin/gamess//ddikick.x /Volumes/Users/maho/bin/gamess//gamess.00.x LiH.631g/1.8/LiH.631g.fullCI.1.8.gamess -ddi 1 1 bach.ad64.riken.go.jp -scr ./

 Distributed Data Interface kickoff program.
 Initiating 1 compute processes on 1 nodes to run the following command:
 /Volumes/Users/maho/bin/gamess//gamess.00.x LiH.631g/1.8/LiH.631g.fullCI.1.8.gamess 

          ******************************************************
          *         GAMESS VERSION = 18 AUG 2016 (R1)          *
          *             FROM IOWA STATE UNIVERSITY             *
          * M.W.SCHMIDT, K.K.BALDRIDGE, J.A.BOATZ, S.T.ELBERT, *
          *   M.S.GORDON, J.H.JENSEN, S.KOSEKI, N.MATSUNAGA,   *
          *          K.A.NGUYEN, S.J.SU, T.L.WINDUS,           *
          *       TOGETHER WITH M.DUPUIS, J.A.MONTGOMERY       *
          *         J.COMPUT.CHEM.  14, 1347-1363(1993)        *
          **************** 64 BIT APPLE VERSION ****************

  SINCE 1993, STUDENTS AND POSTDOCS WORKING AT IOWA STATE UNIVERSITY
  AND ALSO IN THEIR VARIOUS JOBS AFTER LEAVING ISU HAVE MADE IMPORTANT
  CONTRIBUTIONS TO THE CODE:
     IVANA ADAMOVIC, CHRISTINE AIKENS, YURI ALEXEEV, POOJA ARORA,
     ANDREY ASADCHEV, ROB BELL, PRADIPTA BANDYOPADHYAY, JONATHAN BENTZ,
     BRETT BODE, KURT BRORSEN, CALEB CARLIN, GALINA CHABAN, WEI CHEN,
     CHEOL HO CHOI, PAUL DAY, ALBERT DEFUSCO, NUWAN DESILVA, TIM DUDLEY,
     DMITRI FEDOROV, GRAHAM FLETCHER, MARK FREITAG, KURT GLAESEMANN,
     DAN KEMP, GRANT MERRILL, NORIYUKI MINEZAWA, JONATHAN MULLIN,
     TAKESHI NAGATA, SEAN NEDD, HEATHER NETZLOFF, BOSILJKA NJEGIC, RYAN OLSON,
     MIKE PAK, SPENCER PRUITT, LUKE ROSKOP, JIM SHOEMAKER, LYUDMILA SLIPCHENKO,
     TONY SMITH, SAROM SOK LEANG, JIE SONG, TETSUYA TAKETSUGU, SIMON WEBB,
     PENG XU, SOOHAENG YOO, FEDERICO ZAHARIEV

  ADDITIONAL CODE HAS BEEN PROVIDED BY COLLABORATORS IN OTHER GROUPS:
     IOWA STATE UNIVERSITY:
          JOE IVANIC, AARON WEST, LAIMUTIS BYTAUTAS, KLAUS RUEDENBERG
     UNIVERSITY OF TOKYO: KIMIHIKO HIRAO, TAKAHITO NAKAJIMA,
          TAKAO TSUNEDA, MUNEAKI KAMIYA, SUSUMU YANAGISAWA,
          KIYOSHI YAGI, MAHITO CHIBA, SEIKEN TOKURA, NAOAKI KAWAKAMI
     UNIVERSITY OF AARHUS: FRANK JENSEN
     UNIVERSITY OF IOWA: VISVALDAS KAIRYS, HUI LI
     NATIONAL INST. OF STANDARDS AND TECHNOLOGY: WALT STEVENS, DAVID GARMER
     UNIVERSITY OF PISA: BENEDETTA MENNUCCI, JACOPO TOMASI
     UNIVERSITY OF MEMPHIS: HENRY KURTZ, PRAKASHAN KORAMBATH
     UNIVERSITY OF ALBERTA: TOBY ZENG, MARIUSZ KLOBUKOWSKI
     UNIVERSITY OF NEW ENGLAND: MARK SPACKMAN
     MIE UNIVERSITY: HIROAKI UMEDA
     NAT. INST. OF ADVANCED INDUSTRIAL SCIENCE AND TECHNOLOGY: KAZUO KITAURA
     MICHIGAN STATE UNIVERSITY:
          KAROL KOWALSKI, MARTA WLOCH, JEFFREY GOUR, JESSE LUTZ,
          WEI LI, PIOTR PIECUCH
     UNIVERSITY OF SILESIA: MONIKA MUSIAL, STANISLAW KUCHARSKI
     FACULTES UNIVERSITAIRES NOTRE-DAME DE LA PAIX:
          OLIVIER QUINET, BENOIT CHAMPAGNE
     UNIVERSITY OF CALIFORNIA - SANTA BARBARA: BERNARD KIRTMAN
     INSTITUTE FOR MOLECULAR SCIENCE:
          KAZUYA ISHIMURA, MICHIO KATOUDA, AND SHIGERU NAGASE
     UNIVERSITY OF NOTRE DAME: ANNA POMOGAEVA, DAN CHIPMAN
     KYUSHU UNIVERSITY:
          HARUYUKI NAKANO,
          FENG LONG GU, JACEK KORCHOWIEC, MARCIN MAKOWSKI, AND YURIKO AOKI,
          HIROTOSHI MORI AND EISAKU MIYOSHI
     PENNSYLVANIA STATE UNIVERSITY:
          TZVETELIN IORDANOV, CHET SWALINA, JONATHAN SKONE,
          SHARON HAMMES-SCHIFFER
     WASEDA UNIVERSITY:
          MASATO KOBAYASHI, TOMOKO AKAMA, TSUGUKI TOUMA,
          TAKESHI YOSHIKAWA, YASUHIRO IKABATA, JUNJI SEINO,
          YUYA NAKAJIMA, HIROMI NAKAI
     NANJING UNIVERSITY: SHUHUA LI
     UNIVERSITY OF NEBRASKA:
          PEIFENG SU, DEJUN SI, NANDUN THELLAMUREGE, YALI WANG, HUI LI
     UNIVERSITY OF ZURICH: ROBERTO PEVERATI, KIM BALDRIDGE
     N. COPERNICUS UNIVERSITY AND JACKSON STATE UNIVERSITY:
          MARIA BARYSZ
     UNIVERSITY OF COPENHAGEN: Jimmy Kromann, CASPER STEINMANN
     TOKYO INSTITUTE OF TECHNOLOGY: HIROYA NAKATA
     NAGOYA UNIVERSITY: YOSHIO NISHIMOTO, STEPHAN IRLE
     MOSCOW STATE UNIVERSITY: VLADIMIR MIRONOV

 EXECUTION OF GAMESS BEGUN Thu Jan 17 17:46:18 2019

            ECHO OF THE FIRST FEW INPUT CARDS -
 INPUT CARD> $CONTRL SCFTYP=RHF CITYP=ALDET $END                                            
 INPUT CARD> $GUESS  GUESS=HUCKEL $END                                                      
 INPUT CARD> $BASIS GBASIS=N31 NGAUSS=6 NDFUNC=1 NPFUNC=1 $END                              
 INPUT CARD> $CIDET SZ=0 GROUP=C2V NCORE=0 NACT=20 NELS=4 $END                              
 INPUT CARD> $DATA                                                                          
 INPUT CARD>LiH...HF...6-31G* basis                                                         
 INPUT CARD>Cnv   2                                                                         
 INPUT CARD>                                                                                
 INPUT CARD>Li    3.0    0.0      0.0     0.0                                               
 INPUT CARD>H     1.0    0.0      0.0     1.8                                               
 INPUT CARD> $END                                                                           
    1000000 WORDS OF MEMORY AVAILABLE

     BASIS OPTIONS
     -------------
     GBASIS=N31          IGAUSS=       6      POLAR=POPN31  
     NDFUNC=       1     NFFUNC=       0     DIFFSP=       F
     NPFUNC=       1      DIFFS=       F     BASNAM=        


     RUN TITLE
     ---------
 LiH...HF...6-31G* basis                                                         

 THE POINT GROUP OF THE MOLECULE IS CNV     
 THE ORDER OF THE PRINCIPAL AXIS IS     2

 ATOM      ATOMIC                      COORDINATES (BOHR)
           CHARGE         X                   Y                   Z
 LI          3.0     0.0000000000        0.0000000000        0.0000000000
 H           1.0     0.0000000000        0.0000000000        3.4015067779

          INTERNUCLEAR DISTANCES (ANGS.)
          ------------------------------

                1 LI         2 H     

   1 LI      0.0000000    1.8000000 *
   2 H       1.8000000 *  0.0000000  

  * ... LESS THAN  3.000


     ATOMIC BASIS SET
     ----------------
 THE CONTRACTED PRIMITIVE FUNCTIONS HAVE BEEN UNNORMALIZED
 THE CONTRACTED BASIS FUNCTIONS ARE NOW NORMALIZED TO UNITY

  SHELL TYPE  PRIMITIVE        EXPONENT          CONTRACTION COEFFICIENT(S)

 LI        

      1   S       1           642.4189150    0.002142607810
      1   S       2            96.7985153    0.016208871501
      1   S       3            22.0911212    0.077315572504
      1   S       4             6.2010702    0.245786052013
      1   S       5             1.9351177    0.470189004025
      1   S       6             0.6367358    0.345470845019

      2   L       7             2.3249184   -0.035091745735    0.008941508043
      2   L       8             0.6324304   -0.191232843103    0.141009464046
      2   L       9             0.0790534    1.083987794916    0.945363695309

      3   L      10             0.0359620    1.000000000000    1.000000000000

      4   D      11             0.2000000    1.000000000000

 H         

      5   S      12            18.7311370    0.033494604338
      5   S      13             2.8253944    0.234726953484
      5   S      14             0.6401217    0.813757326146

      6   S      15             0.1612778    1.000000000000

      7   P      16             1.1000000    1.000000000000

 TOTAL NUMBER OF BASIS SET SHELLS             =    7
 NUMBER OF CARTESIAN GAUSSIAN BASIS FUNCTIONS =   20
 NUMBER OF ELECTRONS                          =    4
 CHARGE OF MOLECULE                           =    0
 SPIN MULTIPLICITY                            =    1
 NUMBER OF OCCUPIED ORBITALS (ALPHA)          =    2
 NUMBER OF OCCUPIED ORBITALS (BETA )          =    2
 TOTAL NUMBER OF ATOMS                        =    2
 THE NUCLEAR REPULSION ENERGY IS        0.8819620821

 THIS MOLECULE IS RECOGNIZED AS BEING LINEAR,
 ORBITAL LZ DEGENERACY TOLERANCE ETOLLZ= 1.00E-06

     $CONTRL OPTIONS
     ---------------
 SCFTYP=RHF          RUNTYP=ENERGY       EXETYP=RUN     
 MPLEVL=       0     CITYP =ALDET        CCTYP =NONE         VBTYP =NONE    
 DFTTYP=NONE         TDDFT =NONE    
 MULT  =       1     ICHARG=       0     NZVAR =       0     COORD =UNIQUE  
 PP    =NONE         RELWFN=NONE         LOCAL =NONE         NUMGRD=       F
 ISPHER=      -1     NOSYM =       0     MAXIT =      30     UNITS =ANGS    
 PLTORB=       F     MOLPLT=       F     AIMPAC=       F     FRIEND=        
 NPRINT=       7     IREST =       0     GEOM  =INPUT   
 NORMF =       0     NORMP =       0     ITOL  =      20     ICUT  =       9
 INTTYP=BEST         GRDTYP=BEST         QMTTOL= 1.0E-06

     $SYSTEM OPTIONS
     ---------------
  REPLICATED MEMORY=     1000000 WORDS (ON EVERY NODE).
 DISTRIBUTED MEMDDI=           0 MILLION WORDS IN AGGREGATE,
 MEMDDI DISTRIBUTED OVER   1 PROCESSORS IS           0 WORDS/PROCESSOR.
 TOTAL MEMORY REQUESTED ON EACH PROCESSOR=     1000000 WORDS.
 TIMLIM=      525600.00 MINUTES, OR     365.0 DAYS.
 PARALL= F  BALTYP=  DLB     KDIAG=    0  COREFL= F
 MXSEQ2=     300 MXSEQ3=     150  mem10=         0

          ----------------
          PROPERTIES INPUT
          ----------------

     MOMENTS            FIELD           POTENTIAL          DENSITY
 IEMOM =       1   IEFLD =       0   IEPOT =       0   IEDEN =       0
 WHERE =COMASS     WHERE =NUCLEI     WHERE =NUCLEI     WHERE =NUCLEI  
 OUTPUT=BOTH       OUTPUT=BOTH       OUTPUT=BOTH       OUTPUT=BOTH    
 IEMINT=       0   IEFINT=       0                     IEDINT=       0
                                                       MORB  =       0
          EXTRAPOLATION IN EFFECT
          SOSCF IN EFFECT
 ORBITAL PRINTING OPTION: NPREO=     1    20     2     1

     -------------------------------
     INTEGRAL TRANSFORMATION OPTIONS
     -------------------------------
     NWORD  =            0
     CUTOFF = 1.0E-09     MPTRAN =       0
     DIRTRF =       F     AOINTS =DUP     

          ----------------------
          INTEGRAL INPUT OPTIONS
          ----------------------
 NOPK  =       1 NORDER=       0 SCHWRZ=       F

     ------------------------------------------
     THE POINT GROUP IS CNV, NAXIS= 2, ORDER= 4
     ------------------------------------------

     DIMENSIONS OF THE SYMMETRY SUBSPACES ARE
 A1  =   11     A2  =    1     B1  =    4     B2  =    4

 ..... DONE SETTING UP THE RUN .....
 STEP CPU TIME =     0.00 TOTAL CPU TIME =        0.0 (    0.0 MIN)
 TOTAL WALL CLOCK TIME=        0.0 SECONDS, CPU UTILIZATION IS   0.00%

          ********************
          1 ELECTRON INTEGRALS
          ********************
 ...... END OF ONE-ELECTRON INTEGRALS ......
 STEP CPU TIME =     0.01 TOTAL CPU TIME =        0.0 (    0.0 MIN)
 TOTAL WALL CLOCK TIME=        0.0 SECONDS, CPU UTILIZATION IS 100.00%

          -------------
          GUESS OPTIONS
          -------------
          GUESS =HUCKEL            NORB  =       0          NORDER=       0
          MIX   =       F          PRTMO =       F          PUNMO =       F
          TOLZ  = 1.0E-08          TOLE  = 1.0E-05
          SYMDEN=       F          PURIFY=       F

 INITIAL GUESS ORBITALS GENERATED BY HUCKEL   ROUTINE.
 HUCKEL GUESS REQUIRES      4469 WORDS.

 SYMMETRIES FOR INITIAL GUESS ORBITALS FOLLOW.   BOTH SET(S).
     2 ORBITALS ARE OCCUPIED (    1 CORE ORBITALS).
     2=A1       3=A1       4=A1       5=A1       6=A1       7=A1       8=A1  
     9=A1      10=A1      11=A1      12=A2  
 ...... END OF INITIAL ORBITAL SELECTION ......
 STEP CPU TIME =     0.00 TOTAL CPU TIME =        0.0 (    0.0 MIN)
 TOTAL WALL CLOCK TIME=        0.0 SECONDS, CPU UTILIZATION IS 100.00%

                    ----------------------
                    AO INTEGRAL TECHNOLOGY
                    ----------------------
     S,P,L SHELL ROTATED AXIS INTEGRALS, REPROGRAMMED BY
        KAZUYA ISHIMURA (IMS) AND JOSE SIERRA (SYNSTAR).
     S,P,D,L SHELL ROTATED AXIS INTEGRALS PROGRAMMED BY
        KAZUYA ISHIMURA (INSTITUTE FOR MOLECULAR SCIENCE).
     S,P,D,F,G SHELL TO TOTAL QUARTET ANGULAR MOMENTUM SUM 5,
        ERIC PROGRAM BY GRAHAM FLETCHER (ELORET AND NASA ADVANCED
        SUPERCOMPUTING DIVISION, AMES RESEARCH CENTER).
     S,P,D,F,G,L SHELL GENERAL RYS QUADRATURE PROGRAMMED BY
        MICHEL DUPUIS (PACIFIC NORTHWEST NATIONAL LABORATORY).

          --------------------
          2 ELECTRON INTEGRALS
          --------------------

 THE -PK- OPTION IS OFF, THE INTEGRALS ARE NOT IN SUPERMATRIX FORM.
 STORING   15000 INTEGRALS/RECORD ON DISK, USING 12 BYTES/INTEGRAL.
 TWO ELECTRON INTEGRAL EVALUATION REQUIRES   90424 WORDS OF MEMORY.
 II,JST,KST,LST =  1  1  1  1 NREC =         1 INTLOC =    1
 II,JST,KST,LST =  2  1  1  1 NREC =         1 INTLOC =    2
 II,JST,KST,LST =  3  1  1  1 NREC =         1 INTLOC =   34
 II,JST,KST,LST =  4  1  1  1 NREC =         1 INTLOC =  214
 II,JST,KST,LST =  5  1  1  1 NREC =         1 INTLOC = 1189
 II,JST,KST,LST =  6  1  1  1 NREC =         1 INTLOC = 1867
 II,JST,KST,LST =  7  1  1  1 NREC =         1 INTLOC = 2713
 TOTAL NUMBER OF NONZERO TWO-ELECTRON INTEGRALS =                5596
          1 INTEGRAL RECORDS WERE STORED ON DISK FILE  8.
  ...... END OF TWO-ELECTRON INTEGRALS .....
 STEP CPU TIME =     0.02 TOTAL CPU TIME =        0.0 (    0.0 MIN)
 TOTAL WALL CLOCK TIME=        0.0 SECONDS, CPU UTILIZATION IS 100.00%

          --------------------------
                 RHF SCF CALCULATION
          --------------------------

     NUCLEAR ENERGY =         0.8819620821
     MAXIT =   30     NPUNCH=    2
     EXTRAP=T  DAMP=F  SHIFT=F  RSTRCT=F  DIIS=F  DEM=F  SOSCF=T
     DENSITY MATRIX CONV=  1.00E-06
     SOSCF WILL OPTIMIZE      36 ORBITAL ROTATIONS, SOGTOL=   0.250
     MEMORY REQUIRED FOR RHF ITERS=     33224 WORDS.

 ITER EX DEM     TOTAL ENERGY        E CHANGE  DENSITY CHANGE     ORB. GRAD
   1  0  0       -7.8624651020    -7.8624651020   0.349599713   0.000000000
          ---------------START SECOND ORDER SCF---------------
   2  1  0       -7.9717746514    -0.1093095493   0.047924931   0.020178419
   3  2  0       -7.9777146663    -0.0059400149   0.024001419   0.006224421
   4  3  0       -7.9784275464    -0.0007128801   0.002566631   0.000965159
   5  4  0       -7.9784366334    -0.0000090870   0.000471654   0.000190549
   6  5  0       -7.9784367559    -0.0000001225   0.000058928   0.000013426
   7  6  0       -7.9784367570    -0.0000000011   0.000011217   0.000001113
   8  7  0       -7.9784367570    -0.0000000000   0.000000300   0.000000065
   9  8  0       -7.9784367570    -0.0000000000   0.000000044   0.000000011

          -----------------
          DENSITY CONVERGED
          -----------------
     TIME TO FORM FOCK OPERATORS=       0.0 SECONDS (       0.0 SEC/ITER)
     TIME TO SOLVE SCF EQUATIONS=       0.0 SECONDS (       0.0 SEC/ITER)

 FINAL RHF ENERGY IS       -7.9784367570 AFTER   9 ITERATIONS

 LZ VALUE ANALYSIS FOR THE MOS
 ----------------------------------------
 MO     1 (    1) HAS LZ(WEIGHT)= 0.00(100.0%) 
 MO     2 (    2) HAS LZ(WEIGHT)= 0.00(100.0%) 
 MO     3 (    3) HAS LZ(WEIGHT)= 0.00(100.0%) 
 MO     4 (    4) HAS LZ(WEIGHT)=-1.00( 50.0%)  1.00( 50.0%) 
 MO     5 (    4) HAS LZ(WEIGHT)=-1.00( 50.0%)  1.00( 50.0%) 
 MO     6 (    5) HAS LZ(WEIGHT)= 0.00(100.0%) 
 MO     7 (    6) HAS LZ(WEIGHT)= 0.00(100.0%) 
 MO     8 (    7) HAS LZ(WEIGHT)=-1.00( 50.0%)  1.00( 50.0%) 
 MO     9 (    7) HAS LZ(WEIGHT)=-1.00( 50.0%)  1.00( 50.0%) 
 MO    10 (    8) HAS LZ(WEIGHT)= 0.00(100.0%) 
 MO    11 (    9) HAS LZ(WEIGHT)=-1.00( 50.0%)  1.00( 50.0%) 
 MO    12 (    9) HAS LZ(WEIGHT)=-1.00( 50.0%)  1.00( 50.0%) 
 MO    13 (   10) HAS LZ(WEIGHT)=-2.00( 50.0%)  2.00( 50.0%) 
 MO    14 (   10) HAS LZ(WEIGHT)=-2.00( 50.0%)  2.00( 50.0%) 
 MO    15 (   11) HAS LZ(WEIGHT)= 0.00(100.0%) 
 MO    16 (   12) HAS LZ(WEIGHT)= 0.00(100.0%) 
 MO    17 (   13) HAS LZ(WEIGHT)= 0.00(100.0%) 
 MO    18 (   14) HAS LZ(WEIGHT)=-1.00( 50.0%)  1.00( 50.0%) 
 MO    19 (   14) HAS LZ(WEIGHT)=-1.00( 50.0%)  1.00( 50.0%) 
 MO    20 (   15) HAS LZ(WEIGHT)= 0.00(100.0%) 

          ------------
          EIGENVECTORS
          ------------

                      1          2          3          4          5
                   -2.4653    -0.2885     0.0042     0.0575     0.0575
                     A1         A1         A1         B1         B2  
    1  LI 1  S    0.998502  -0.114595  -0.145144  -0.000000  -0.000000
    2  LI 1  S   -0.009775   0.167944  -0.363190  -0.000000  -0.000000
    3  LI 1  X    0.000000  -0.000000   0.000000   0.030214  -0.000000
    4  LI 1  Y    0.000000  -0.000000   0.000000  -0.000000   0.030214
    5  LI 1  Z   -0.010323   0.212194  -0.179655  -0.000000  -0.000000
    6  LI 1  S   -0.000274   0.201333   0.956653  -0.000000  -0.000000
    7  LI 1  X    0.000000  -0.000000   0.000000   0.974958  -0.000000
    8  LI 1  Y    0.000000  -0.000000   0.000000  -0.000000   0.974958
    9  LI 1  Z    0.005286   0.031318  -0.497054  -0.000000  -0.000000
   10  LI 1 XX    0.008862  -0.003877   0.068483  -0.000000  -0.000000
   11  LI 1 YY    0.008862  -0.003877   0.068483  -0.000000  -0.000000
   12  LI 1 ZZ    0.006583   0.041689   0.081106  -0.000000  -0.000000
   13  LI 1 XY    0.000000  -0.000000   0.000000  -0.000000  -0.000000
   14  LI 1 XZ    0.000000  -0.000000   0.000000  -0.029834  -0.000000
   15  LI 1 YZ    0.000000  -0.000000   0.000000  -0.000000  -0.029834
   16  H  2  S    0.001283   0.277645  -0.060450  -0.000000  -0.000000
   17  H  2  S    0.004686   0.425748  -0.067566  -0.000000  -0.000000
   18  H  2  X    0.000000  -0.000000   0.000000   0.004289  -0.000000
   19  H  2  Y    0.000000  -0.000000   0.000000  -0.000000   0.004289
   20  H  2  Z   -0.001079  -0.007822   0.001970  -0.000000  -0.000000

                      6          7          8          9         10
                    0.1471     0.1909     0.2170     0.2170     0.3118
                     A1         A1         B1         B2         A1  
    1  LI 1  S   -0.063382   0.062587   0.000000   0.000000   0.017562
    2  LI 1  S   -0.206586   2.845778   0.000000   0.000000   1.606443
    3  LI 1  X    0.000000  -0.000000   1.669198   0.000000  -0.000000
    4  LI 1  Y    0.000000  -0.000000   0.000000   1.669198  -0.000000
    5  LI 1  Z   -0.673475  -0.822644   0.000000   0.000000   1.465587
    6  LI 1  S    0.730782  -2.292823   0.000000   0.000000  -0.666987
    7  LI 1  X    0.000000  -0.000000  -1.359412   0.000000  -0.000000
    8  LI 1  Y    0.000000  -0.000000   0.000000  -1.359412  -0.000000
    9  LI 1  Z    1.408550   0.420749   0.000000   0.000000  -0.609014
   10  LI 1 XX    0.046942  -0.288372   0.000000   0.000000  -0.016464
   11  LI 1 YY    0.046942  -0.288372   0.000000   0.000000  -0.016464
   12  LI 1 ZZ    0.079742  -0.249292   0.000000   0.000000  -0.280991
   13  LI 1 XY    0.000000  -0.000000   0.000000   0.000000  -0.000000
   14  LI 1 XZ    0.000000  -0.000000  -0.072621   0.000000  -0.000000
   15  LI 1 YZ    0.000000  -0.000000   0.000000  -0.072621  -0.000000
   16  H  2  S   -0.092645   0.012201   0.000000   0.000000  -0.081089
   17  H  2  S   -0.638940   0.251688   0.000000   0.000000  -0.984403
   18  H  2  X    0.000000  -0.000000   0.005139   0.000000  -0.000000
   19  H  2  Y    0.000000  -0.000000   0.000000   0.005139  -0.000000
   20  H  2  Z    0.009412   0.001158   0.000000   0.000000  -0.023620

                     11         12         13         14         15
                    0.5707     0.5707     0.5729     0.5729     0.7263
                     B1         B2         A2         A1         A1  
    1  LI 1  S   -0.000000  -0.000000   0.000000   0.000000  -0.026372
    2  LI 1  S   -0.000000  -0.000000   0.000000   0.000000  -0.023597
    3  LI 1  X    0.118565  -0.000000   0.000000   0.000000  -0.000000
    4  LI 1  Y   -0.000000   0.118565   0.000000   0.000000  -0.000000
    5  LI 1  Z   -0.000000  -0.000000   0.000000   0.000000  -1.054202
    6  LI 1  S   -0.000000  -0.000000   0.000000   0.000000  -0.365281
    7  LI 1  X   -0.068652  -0.000000   0.000000   0.000000  -0.000000
    8  LI 1  Y   -0.000000  -0.068652   0.000000   0.000000  -0.000000
    9  LI 1  Z   -0.000000  -0.000000   0.000000   0.000000   0.051054
   10  LI 1 XX   -0.000000  -0.000000   0.000000  -0.866025   0.428539
   11  LI 1 YY   -0.000000  -0.000000   0.000000   0.866025   0.428539
   12  LI 1 ZZ   -0.000000  -0.000000   0.000000   0.000000  -1.465735
   13  LI 1 XY   -0.000000  -0.000000   1.000000   0.000000  -0.000000
   14  LI 1 XZ    0.992742  -0.000000   0.000000   0.000000  -0.000000
   15  LI 1 YZ   -0.000000   0.992742   0.000000   0.000000  -0.000000
   16  H  2  S   -0.000000  -0.000000   0.000000   0.000000  -0.094674
   17  H  2  S   -0.000000  -0.000000   0.000000   0.000000   1.636256
   18  H  2  X    0.024697  -0.000000   0.000000   0.000000  -0.000000
   19  H  2  Y   -0.000000   0.024697   0.000000   0.000000  -0.000000
   20  H  2  Z   -0.000000  -0.000000   0.000000   0.000000   0.002989

                     16         17         18         19         20
                    1.1796     1.3493     2.5304     2.5304     2.7620
                     A1         A1         B1         B2         A1  
    1  LI 1  S    0.076383   0.114762  -0.000000  -0.000000   0.015874
    2  LI 1  S    8.259329   4.848334  -0.000000  -0.000000  -0.086232
    3  LI 1  X   -0.000000   0.000000  -0.107195  -0.000000  -0.000000
    4  LI 1  Y   -0.000000   0.000000  -0.000000  -0.107195  -0.000000
    5  LI 1  Z    0.068443   0.205417  -0.000000  -0.000000   0.668885
    6  LI 1  S   -2.626563  -1.189920  -0.000000  -0.000000   0.097367
    7  LI 1  X   -0.000000   0.000000   0.031927  -0.000000  -0.000000
    8  LI 1  Y   -0.000000   0.000000  -0.000000   0.031927  -0.000000
    9  LI 1  Z   -0.096024   0.214356  -0.000000  -0.000000  -0.176162
   10  LI 1 XX   -2.831641  -1.526234  -0.000000  -0.000000  -0.017320
   11  LI 1 YY   -2.831641  -1.526234  -0.000000  -0.000000  -0.017320
   12  LI 1 ZZ   -2.567584  -1.641432  -0.000000  -0.000000   0.650849
   13  LI 1 XY   -0.000000   0.000000  -0.000000  -0.000000  -0.000000
   14  LI 1 XZ   -0.000000   0.000000  -0.186987  -0.000000  -0.000000
   15  LI 1 YZ   -0.000000   0.000000  -0.000000  -0.186987  -0.000000
   16  H  2  S   -0.539072   1.283766  -0.000000  -0.000000   0.057326
   17  H  2  S    0.405363  -1.452139  -0.000000  -0.000000  -0.753095
   18  H  2  X   -0.000000   0.000000   1.015729  -0.000000  -0.000000
   19  H  2  Y   -0.000000   0.000000  -0.000000   1.015729  -0.000000
   20  H  2  Z   -0.016273  -0.032708  -0.000000  -0.000000   1.083716
 ...... END OF RHF CALCULATION ......
 STEP CPU TIME =     0.01 TOTAL CPU TIME =        0.0 (    0.0 MIN)
 TOTAL WALL CLOCK TIME=        0.0 SECONDS, CPU UTILIZATION IS 100.00%

     ----------------------------------------------------------------
     PROPERTY VALUES FOR THE RHF   SELF-CONSISTENT FIELD WAVEFUNCTION
     ----------------------------------------------------------------

          -----------------
          ENERGY COMPONENTS
          -----------------

         WAVEFUNCTION NORMALIZATION =       1.0000000000

                ONE ELECTRON ENERGY =     -12.2132519729
                TWO ELECTRON ENERGY =       3.3528531338
           NUCLEAR REPULSION ENERGY =       0.8819620821
                                      ------------------
                       TOTAL ENERGY =      -7.9784367570

 ELECTRON-ELECTRON POTENTIAL ENERGY =       3.3528531338
  NUCLEUS-ELECTRON POTENTIAL ENERGY =     -20.1542484094
   NUCLEUS-NUCLEUS POTENTIAL ENERGY =       0.8819620821
                                      ------------------
             TOTAL POTENTIAL ENERGY =     -15.9194331936
               TOTAL KINETIC ENERGY =       7.9409964366
                 VIRIAL RATIO (V/T) =       2.0047148139

  ...... PI ENERGY ANALYSIS ......

 ENERGY ANALYSIS:
            FOCK ENERGY=     -5.5075457170
          BARE H ENERGY=    -12.2132519729
     ELECTRONIC ENERGY =     -8.8603988449
         KINETIC ENERGY=      7.9409964366
          N-N REPULSION=      0.8819620821
           TOTAL ENERGY=     -7.9784367629
        SIGMA PART(1+2)=     -8.8603988449
               (K,V1,2)=      7.9409964366    -20.1542484094      3.3528531279
           PI PART(1+2)=      0.0000000000
               (K,V1,2)=      0.0000000000      0.0000000000      0.0000000000
  SIGMA SKELETON, ERROR=     -7.9784367629      0.0000000000
             MIXED PART= 0.00000E+00 0.00000E+00 0.00000E+00 0.00000E+00
 ...... END OF PI ENERGY ANALYSIS ......

          ---------------------------------------
          MULLIKEN AND LOWDIN POPULATION ANALYSES
          ---------------------------------------

               ----- POPULATIONS IN EACH AO -----
                             MULLIKEN      LOWDIN
              1  LI 1  S      1.99820     1.98324
              2  LI 1  S      0.20865     0.17231
              3  LI 1  X      0.00000     0.00000
              4  LI 1  Y      0.00000     0.00000
              5  LI 1  Z      0.25234     0.24649
              6  LI 1  S      0.24501     0.21793
              7  LI 1  X      0.00000     0.00000
              8  LI 1  Y      0.00000     0.00000
              9  LI 1  Z      0.03008     0.09884
             10  LI 1 XX     -0.00076     0.03296
             11  LI 1 YY     -0.00076     0.03296
             12  LI 1 ZZ      0.05502     0.17023
             13  LI 1 XY      0.00000     0.00000
             14  LI 1 XZ      0.00000     0.00000
             15  LI 1 YZ      0.00000     0.00000
             16  H  2  S      0.40120     0.39497
             17  H  2  S      0.81029     0.64973
             18  H  2  X      0.00000     0.00000
             19  H  2  Y      0.00000     0.00000
             20  H  2  Z      0.00074     0.00033

          ----- MULLIKEN ATOMIC OVERLAP POPULATIONS -----
          (OFF-DIAGONAL ELEMENTS NEED TO BE MULTIPLIED BY 2)

             1           2

    1    2.4036781
    2    0.3840905   0.8281410

          TOTAL MULLIKEN AND LOWDIN ATOMIC POPULATIONS
       ATOM         MULL.POP.    CHARGE          LOW.POP.     CHARGE
    1 LI            2.787769    0.212231         2.954970    0.045030
    2 H             1.212231   -0.212231         1.045030   -0.045030

          ---------------------
          ELECTROSTATIC MOMENTS
          ---------------------

 POINT   1           X           Y           Z (BOHR)    CHARGE
                 0.000000    0.000000    0.427243       -0.00 (A.U.)
         DX          DY          DZ         /D/  (DEBYE)
     0.000000    0.000000   -6.313090    6.313090
 ...... END OF PROPERTY EVALUATION ......
 STEP CPU TIME =     0.00 TOTAL CPU TIME =        0.0 (    0.0 MIN)
 TOTAL WALL CLOCK TIME=        0.0 SECONDS, CPU UTILIZATION IS 100.00%

 DETERMINANT CI OPTIONS   NRNFG   NPFLG
 INTEGRAL TRANSFORMATION    1       0
 DIAGONALIZE HAMILTONIAN    1       0
 FORM 1E- DENSITY MATRIX    1       0
 FORM 2E- DENSITY MATRIX    0       0

     --------------------------------------------------
          AMES LABORATORY DETERMINANTAL FULL CI
     PROGRAM WRITTEN BY JOE IVANIC AND KLAUS RUEDENBERG
     --------------------------------------------------

 THE POINT GROUP                  =   C2V     
 THE STATE SYMMETRY               =   A1      
 NUMBER OF CORE ORBITALS          =    0
 NUMBER OF ACTIVE ORBITALS        =   20
 NUMBER OF ALPHA ELECTRONS        =    2 (   2 ACTIVE)
 NUMBER OF BETA ELECTRONS         =    2 (   2 ACTIVE)
 NUMBER OF OCCUPIED ORBITALS      =   20
 NUMBER OF CI STATES REQUESTED    =    1
 NUMBER OF CI STARTING VECTORS    =    1
 MAX. NO. OF CI EXPANSION VECTORS =   10
 SIZE OF INITIAL CI GUESS MATRIX  =  300
 MAX. NO. OF CI ITERS/STATE       =  100
 CI DIAGONALIZATION CRITERION     = 1.00E-06
 CI PROPERTIES WILL BE FOUND FOR ROOT NUMBER   1
 1E- DENSITY MATRIX OPTIONS ARE 1

 CORRELATION ENERGY ANALYSIS      =    F

 SYMMETRIES FOR THE   0 CORE,  20 ACTIVE ARE

   ACTIVE= A1    A1    A1    B1    B2    A1    A1    B1    B2    A1  
           B1    B2    A2    A1    A1    A1    A1    B1    B2    A1  

     --------------------------------------------
     PARTIAL TWO ELECTRON INTEGRAL TRANSFORMATION
     --------------------------------------------

 NUMBER OF CORE MOLECULAR ORBITALS     =    0
 NUMBER OF OCCUPIED MOLECULAR ORBITALS =   20
 TOTAL NUMBER OF MOLECULAR ORBITALS    =   20
 TOTAL NUMBER OF ATOMIC ORBITALS       =   20
 THRESHOLD FOR KEEPING TRANSFORMED 2E- INTEGRALS = 1.000E-09
 AO INTEGRALS WILL BE READ IN FROM DISK...

 PLAN A: REQUIREMENTS FOR FULLY IN-MEMORY TRANSFORMATION:
 # OF WORDS AVAILABLE =              1000000
 # OF WORDS NEEDED    =               146042

 CHOOSING IN MEMORY PARTIAL TRANSFORMATION...
 TOTAL NUMBER OF TRANSFORMED 2E- INTEGRALS KEPT =         5962
 ... END OF INTEGRAL TRANSFORMATION ...
 STEP CPU TIME =     0.00 TOTAL CPU TIME =        0.0 (    0.0 MIN)
 TOTAL WALL CLOCK TIME=        0.0 SECONDS, CPU UTILIZATION IS  80.00%

     --------------------------------------------------
          AMES LABORATORY DETERMINANTAL FULL CI
     PROGRAM WRITTEN BY JOE IVANIC AND KLAUS RUEDENBERG
     --------------------------------------------------

 THE NUMBER OF DETERMINANTS HAVING SPACE SYMMETRY A1 
 IN POINT GROUP C2V  WITH SZ=  0.0 IS           9826
 THE DETERMINANT FULL CI REQUIRES          451749 WORDS
 INITIAL CI VECTOR GUESS TIME  :          0.0
 INITIAL FULL CI ITERATION TIME:          0.0

 ITERATION      ENERGY           GRADIENT
     0       -8.0030154584     0.12618852
     1       -8.0062401006     0.00861623
     2       -8.0063113181     0.00381950
     3       -8.0063198231     0.00109934
     4       -8.0063213528     0.00049175
     5       -8.0063216218     0.00018027
     6       -8.0063216448     0.00004129
     7       -8.0063216462     0.00001151
     8       -8.0063216463     0.00000277
     9       -8.0063216463     0.00000055

 CONVERGED STATE    1 ENERGY=       -8.0063216463 IN    9 ITERS

 ALL STATES CONVERGED.

 CI EIGENVECTORS WILL BE LABELED IN GROUP=C2V     
 PRINTING CI COEFFICIENTS LARGER THAN 5.000E-02

 STATE   1  ENERGY=        -8.0063216463  S=  0.00  SZ=  0.00  SPACE SYM=A1  

        ALPHA         |        BETA          | CI COEFFICIENT
----------------------|----------------------|---------------
 11000000000000000000 | 11000000000000000000 |   0.9851899147
 10000000010000000000 | 10000000010000000000 |  -0.0610331803
 10000100000000000000 | 10000100000000000000 |  -0.0557797778
 ..... DONE WITH DETERMINANT CI COMPUTATION .....
 STEP CPU TIME =     0.25 TOTAL CPU TIME =        0.3 (    0.0 MIN)
 TOTAL WALL CLOCK TIME=        0.4 SECONDS, CPU UTILIZATION IS  80.56%

     ---------------------------
     ONE PARTICLE DENSITY MATRIX
     ---------------------------

 DENSITY MATRIX WILL BE SAVED FOR   1-TH STATE WITH S= 0.00

 CI EIGENSTATE   1 TOTAL ENERGY =       -8.0063216463

          NATURAL ORBITALS IN ATOMIC ORBITAL BASIS
          ----------------------------------------

                      1          2          3          4          5
                    1.9998     1.9463     0.0413     0.0043     0.0035
                     A1         A1         A1         A1         B1  
    1  LI 1  S    0.999313  -0.110971   0.112615   0.069799   0.000000
    2  LI 1  S   -0.007397   0.183803  -0.595005   1.275022   0.000000
    3  LI 1  X    0.000000  -0.000000   0.000000  -0.000000   0.762108
    4  LI 1  Y    0.000000  -0.000000   0.000000  -0.000000   0.000000
    5  LI 1  Z   -0.011238   0.206303  -0.423717   1.323905   0.000000
    6  LI 1  S   -0.003038   0.219583  -0.440917  -0.794399   0.000000
    7  LI 1  X    0.000000  -0.000000   0.000000  -0.000000  -0.115066
    8  LI 1  Y    0.000000  -0.000000   0.000000  -0.000000   0.000000
    9  LI 1  Z    0.004883   0.028772  -0.107330  -0.730785   0.000000
   10  LI 1 XX    0.007973  -0.001125   0.030124  -0.224260   0.000000
   11  LI 1 YY    0.007973  -0.001125   0.030124  -0.224260   0.000000
   12  LI 1 ZZ    0.005602   0.038718  -0.014891   0.568480   0.000000
   13  LI 1 XY    0.000000  -0.000000   0.000000  -0.000000   0.000000
   14  LI 1 XZ    0.000000  -0.000000   0.000000  -0.000000   0.561729
   15  LI 1 YZ    0.000000  -0.000000   0.000000  -0.000000   0.000000
   16  H  2  S   -0.001057   0.292437   0.641517   0.349866   0.000000
   17  H  2  S    0.001244   0.396685   0.514742  -1.302928   0.000000
   18  H  2  X    0.000000  -0.000000   0.000000  -0.000000   0.360719
   19  H  2  Y    0.000000  -0.000000   0.000000  -0.000000   0.000000
   20  H  2  Z   -0.001016  -0.006908   0.006081  -0.326829   0.000000

                      6          7          8          9         10
                    0.0035     0.0005     0.0002     0.0002     0.0001
                     B2         A1         B1         B2         A1  
    1  LI 1  S    0.000000   0.014373   0.000000   0.000000   0.060099
    2  LI 1  S    0.000000  -0.259496   0.000000   0.000000   2.529963
    3  LI 1  X    0.000000   0.000000  -0.591219   0.000000  -0.000000
    4  LI 1  Y    0.762108   0.000000   0.000000  -0.591219  -0.000000
    5  LI 1  Z    0.000000   0.261361   0.000000   0.000000   0.879190
    6  LI 1  S    0.000000  -0.630311   0.000000   0.000000  -1.298837
    7  LI 1  X    0.000000   0.000000   0.143491   0.000000  -0.000000
    8  LI 1  Y   -0.115066   0.000000   0.000000   0.143491  -0.000000
    9  LI 1  Z    0.000000  -0.442430   0.000000   0.000000  -0.676159
   10  LI 1 XX    0.000000  -0.037850   0.000000   0.000000  -0.513331
   11  LI 1 YY    0.000000  -0.037850   0.000000   0.000000  -0.513331
   12  LI 1 ZZ    0.000000   0.304119   0.000000   0.000000  -0.270696
   13  LI 1 XY    0.000000   0.000000   0.000000   0.000000  -0.000000
   14  LI 1 XZ    0.000000   0.000000  -0.200474   0.000000  -0.000000
   15  LI 1 YZ    0.561729   0.000000   0.000000  -0.200474  -0.000000
   16  H  2  S    0.000000  -1.140141   0.000000   0.000000   0.075720
   17  H  2  S    0.000000   1.349190   0.000000   0.000000  -0.517147
   18  H  2  X    0.000000   0.000000   0.922760   0.000000  -0.000000
   19  H  2  Y    0.360719   0.000000   0.000000   0.922760  -0.000000
   20  H  2  Z    0.000000  -0.035612   0.000000   0.000000   0.905152

                     11         12         13         14         15
                    0.0001     0.0000     0.0000     0.0000     0.0000
                     A1         B1         B2         A1         A1  
    1  LI 1  S    0.069027  -0.000000  -0.000000   0.104806  -0.000000
    2  LI 1  S    7.310623  -0.000000  -0.000000   6.241560  -0.000000
    3  LI 1  X   -0.000000  -1.363137  -0.000000   0.000000  -0.000000
    4  LI 1  Y   -0.000000  -0.000000  -1.363137   0.000000  -0.000000
    5  LI 1  Z   -1.107862  -0.000000  -0.000000   0.948178  -0.000000
    6  LI 1  S   -3.067391  -0.000000  -0.000000  -1.198363  -0.000000
    7  LI 1  X   -0.000000   1.427223  -0.000000   0.000000  -0.000000
    8  LI 1  Y   -0.000000  -0.000000   1.427223   0.000000  -0.000000
    9  LI 1  Z    0.351025  -0.000000  -0.000000  -0.090046  -0.000000
   10  LI 1 XX   -2.070179  -0.000000  -0.000000  -2.435352   0.866025
   11  LI 1 YY   -2.070179  -0.000000  -0.000000  -2.435352  -0.866025
   12  LI 1 ZZ   -2.246142  -0.000000  -0.000000  -2.059908  -0.000000
   13  LI 1 XY   -0.000000  -0.000000  -0.000000   0.000000  -0.000000
   14  LI 1 XZ   -0.000000   0.466371  -0.000000   0.000000  -0.000000
   15  LI 1 YZ   -0.000000  -0.000000   0.466371   0.000000  -0.000000
   16  H  2  S   -0.104971  -0.000000  -0.000000   0.271686  -0.000000
   17  H  2  S    0.707713  -0.000000  -0.000000  -0.960776  -0.000000
   18  H  2  X   -0.000000  -0.146714  -0.000000   0.000000  -0.000000
   19  H  2  Y   -0.000000  -0.000000  -0.146714   0.000000  -0.000000
   20  H  2  Z   -0.282806  -0.000000  -0.000000  -0.000998  -0.000000

                     16         17         18         19         20
                    0.0000     0.0000     0.0000     0.0000     0.0000
                     A2         B1         B2         A1         A1  
    1  LI 1  S    0.000000   0.000000   0.000000   0.022014  -0.104180
    2  LI 1  S    0.000000   0.000000   0.000000  -0.264677  -1.287985
    3  LI 1  X    0.000000  -0.155535   0.000000   0.000000   0.000000
    4  LI 1  Y    0.000000   0.000000  -0.155535   0.000000   0.000000
    5  LI 1  Z    0.000000   0.000000   0.000000  -0.013005   0.135992
    6  LI 1  S    0.000000   0.000000   0.000000   0.270272   1.331668
    7  LI 1  X    0.000000   0.856436   0.000000   0.000000   0.000000
    8  LI 1  Y    0.000000   0.000000   0.856436   0.000000   0.000000
    9  LI 1  Z    0.000000   0.000000   0.000000   0.919694  -0.832047
   10  LI 1 XX    0.000000   0.000000   0.000000  -0.264000  -0.139497
   11  LI 1 YY    0.000000   0.000000   0.000000  -0.264000  -0.139497
   12  LI 1 ZZ    0.000000   0.000000   0.000000   1.387314   0.557576
   13  LI 1 XY    1.000000   0.000000   0.000000   0.000000   0.000000
   14  LI 1 XZ    0.000000  -0.673373   0.000000   0.000000   0.000000
   15  LI 1 YZ    0.000000   0.000000  -0.673373   0.000000   0.000000
   16  H  2  S    0.000000   0.000000   0.000000   0.047818  -0.186297
   17  H  2  S    0.000000   0.000000   0.000000  -1.214527   0.193079
   18  H  2  X    0.000000   0.170967   0.000000   0.000000   0.000000
   19  H  2  Y    0.000000   0.000000   0.170967   0.000000   0.000000
   20  H  2  Z    0.000000   0.000000   0.000000   0.399869   0.095661
 ..... DONE WITH ONE PARTICLE DENSITY MATRIX .....
 STEP CPU TIME =     0.01 TOTAL CPU TIME =        0.3 (    0.0 MIN)
 TOTAL WALL CLOCK TIME=        0.4 SECONDS, CPU UTILIZATION IS  81.08%

     --------------------------------------------------------
     ALDET CI PROPERTIES...FOR THE WAVEFUNCTION OF STATE    1
               USING THE EXPECTATION VALUE DENSITY
     --------------------------------------------------------

          -----------------
          ENERGY COMPONENTS
          -----------------

         WAVEFUNCTION NORMALIZATION =       1.0000000000

                ONE ELECTRON ENERGY =     -12.1863989814
                TWO ELECTRON ENERGY =       3.2981152530
           NUCLEAR REPULSION ENERGY =       0.8819620821
                                      ------------------
                       TOTAL ENERGY =      -8.0063216463

 ELECTRON-ELECTRON POTENTIAL ENERGY =       3.2981152530
  NUCLEUS-ELECTRON POTENTIAL ENERGY =     -20.1672352177
   NUCLEUS-NUCLEUS POTENTIAL ENERGY =       0.8819620821
                                      ------------------
             TOTAL POTENTIAL ENERGY =     -15.9871578826
               TOTAL KINETIC ENERGY =       7.9808362363
                 VIRIAL RATIO (V/T) =       2.0031933258

          ---------------------------------------
          MULLIKEN AND LOWDIN POPULATION ANALYSES
          ---------------------------------------

               ----- POPULATIONS IN EACH AO -----
                             MULLIKEN      LOWDIN
              1  LI 1  S      1.99812     1.98359
              2  LI 1  S      0.24584     0.18953
              3  LI 1  X      0.00190     0.00147
              4  LI 1  Y      0.00190     0.00147
              5  LI 1  Z      0.23036     0.22203
              6  LI 1  S      0.27981     0.24236
              7  LI 1  X     -0.00020     0.00022
              8  LI 1  Y     -0.00020     0.00022
              9  LI 1  Z      0.02677     0.08818
             10  LI 1 XX      0.00017     0.04083
             11  LI 1 YY      0.00017     0.04083
             12  LI 1 ZZ      0.05115     0.16858
             13  LI 1 XY      0.00001     0.00001
             14  LI 1 XZ      0.00121     0.00121
             15  LI 1 YZ      0.00121     0.00121
             16  H  2  S      0.42700     0.40936
             17  H  2  S      0.73157     0.60557
             18  H  2  X      0.00081     0.00082
             19  H  2  Y      0.00081     0.00082
             20  H  2  Z      0.00159     0.00169

          ----- MULLIKEN ATOMIC OVERLAP POPULATIONS -----
          (OFF-DIAGONAL ELEMENTS NEED TO BE MULTIPLIED BY 2)

             1           2

    1    2.5002576
    2    0.3379666   0.8238093

          TOTAL MULLIKEN AND LOWDIN ATOMIC POPULATIONS
       ATOM         MULL.POP.    CHARGE          LOW.POP.     CHARGE
    1 LI            2.838224    0.161776         2.981741    0.018259
    2 H             1.161776   -0.161776         1.018259   -0.018259

          ---------------------
          ELECTROSTATIC MOMENTS
          ---------------------

 POINT   1           X           Y           Z (BOHR)    CHARGE
                 0.000000    0.000000    0.427243       -0.00 (A.U.)
         DX          DY          DZ         /D/  (DEBYE)
     0.000000    0.000000   -5.888016    5.888016
 ...... END OF PROPERTY EVALUATION ......
 STEP CPU TIME =     0.00 TOTAL CPU TIME =        0.3 (    0.0 MIN)
 TOTAL WALL CLOCK TIME=        0.4 SECONDS, CPU UTILIZATION IS  81.08%
               580000  WORDS OF DYNAMIC MEMORY USED
 EXECUTION OF GAMESS TERMINATED NORMALLY Thu Jan 17 17:46:18 2019
 DDI: 263640 bytes (0.3 MB / 0 MWords) used by master data server.

 ----------------------------------------
 CPU timing information for all processes
 ========================================
 0: 0.244 + 0.67 = 0.311
 1: 0.10 + 0.50 = 0.60
 ----------------------------------------
 ddikick.x: exited gracefully.
unset echo
----- accounting info -----
Files used on the master node bach.ad64.riken.go.jp were:
-rw-------  1 maho  staff      280  1 17 17:46 .//LiH.631g/1.8/LiH.631g.fullCI.1.8.gamess.F05
-rw-r--r--  1 maho  staff   180016  1 17 17:46 .//LiH.631g/1.8/LiH.631g.fullCI.1.8.gamess.F08
-rw-r--r--  1 maho  staff   181704  1 17 17:46 .//LiH.631g/1.8/LiH.631g.fullCI.1.8.gamess.F09
-rw-r--r--  1 maho  staff  1832320  1 17 17:46 .//LiH.631g/1.8/LiH.631g.fullCI.1.8.gamess.F10
-rw-r--r--  1 maho  staff    78640  1 17 17:46 .//LiH.631g/1.8/LiH.631g.fullCI.1.8.gamess.F12
-rw-r--r--  1 maho  staff    14499  1 17 17:46 .//LiH.631g/1.8/LiH.631g.fullCI.1.8.gamess.dat
-rw-------  1 maho  staff      280  1 17 17:46 .//LiH.631g/1.8/LiH.631g.fullCI.1.8.gamess.inp
-rw-r--r--  1 maho  staff    42514  1 17 17:46 .//LiH.631g/1.8/LiH.631g.fullCI.1.8.gamess.log
ls: No match.
ls: No match.
ls: No match.
2019年 1月17日 木曜日 17時46分21秒 JST
0.372u 0.230s 0:03.60 16.6%	0+0k 0+0io 0pf+0w
