----- GAMESS execution script 'rungms' -----
This job is running on host localhost
under operating system Linux at Thu Jan 17 17:57:11 JST 2019
Available scratch disk space (Kbyte units) at beginning of the job is
Filesystem     1K-blocks      Used Available Use% Mounted on
/dev/sda1      895286904 141742972 708042904  17% /
GAMESS temporary binary files will be written to .
GAMESS supplementary output files will be written to .
Copying input file N2.SV/2.0/N2.SV.fullCI.2.0.gamess.inp to your run's scratch directory...
cp N2.SV/2.0/N2.SV.fullCI.2.0.gamess.inp ./N2.SV/2.0/N2.SV.fullCI.2.0.gamess.F05
unset echo
/work/pubchem/pm6/pkg/gamess_intel/ddikick.x /work/pubchem/pm6/pkg/gamess_intel/gamess.00.x N2.SV/2.0/N2.SV.fullCI.2.0.gamess -ddi 12 12 localhost localhost localhost localhost localhost localhost localhost localhost localhost localhost localhost localhost -scr .

 Distributed Data Interface kickoff program.
 Initiating 12 compute processes on 12 nodes to run the following command:
 /work/pubchem/pm6/pkg/gamess_intel/gamess.00.x N2.SV/2.0/N2.SV.fullCI.2.0.gamess 

          ******************************************************
          *         GAMESS VERSION =  5 DEC 2014 (R1)          *
          *             FROM IOWA STATE UNIVERSITY             *
          * M.W.SCHMIDT, K.K.BALDRIDGE, J.A.BOATZ, S.T.ELBERT, *
          *   M.S.GORDON, J.H.JENSEN, S.KOSEKI, N.MATSUNAGA,   *
          *          K.A.NGUYEN, S.J.SU, T.L.WINDUS,           *
          *       TOGETHER WITH M.DUPUIS, J.A.MONTGOMERY       *
          *         J.COMPUT.CHEM.  14, 1347-1363(1993)        *
          **************** 64 BIT INTEL VERSION ****************

  SINCE 1993, STUDENTS AND POSTDOCS WORKING AT IOWA STATE UNIVERSITY
  AND ALSO IN THEIR VARIOUS JOBS AFTER LEAVING ISU HAVE MADE IMPORTANT
  CONTRIBUTIONS TO THE CODE:
     IVANA ADAMOVIC, CHRISTINE AIKENS, YURI ALEXEEV, POOJA ARORA,
     ANDREY ASADCHEV, ROB BELL, PRADIPTA BANDYOPADHYAY, JONATHAN BENTZ,
     BRETT BODE, KURT BRORSEN, CALEB CARLIN, GALINA CHABAN, WEI CHEN,
     CHEOL HO CHOI, PAUL DAY, ALBERT DEFUSCO, NUWAN DESILVA, TIM DUDLEY,
     DMITRI FEDOROV, GRAHAM FLETCHER, MARK FREITAG, KURT GLAESEMANN,
     DAN KEMP, GRANT MERRILL, NORIYUKI MINEZAWA, JONATHAN MULLIN,
     TAKESHI NAGATA, SEAN NEDD, HEATHER NETZLOFF, BOSILJKA NJEGIC, RYAN OLSON,
     MIKE PAK, SPENCER PRUITT, LUKE ROSKOP, JIM SHOEMAKER, LYUDMILA SLIPCHENKO,
     TONY SMITH, SAROM SOK, JIE SONG, TETSUYA TAKETSUGU, SIMON WEBB,
     PENG XU, SOOHAENG YOO, FEDERICO ZAHARIEV

  ADDITIONAL CODE HAS BEEN PROVIDED BY COLLABORATORS IN OTHER GROUPS:
     IOWA STATE UNIVERSITY:
          JOE IVANIC, AARON WEST, LAIMUTIS BYTAUTAS, KLAUS RUEDENBERG
     UNIVERSITY OF TOKYO: KIMIHIKO HIRAO, TAKAHITO NAKAJIMA,
          TAKAO TSUNEDA, MUNEAKI KAMIYA, SUSUMU YANAGISAWA,
          KIYOSHI YAGI, MAHITO CHIBA, SEIKEN TOKURA, NAOAKI KAWAKAMI
     UNIVERSITY OF AARHUS: FRANK JENSEN
     UNIVERSITY OF IOWA: VISVALDAS KAIRYS, HUI LI
     NATIONAL INST. OF STANDARDS AND TECHNOLOGY: WALT STEVENS, DAVID GARMER
     UNIVERSITY OF PISA: BENEDETTA MENNUCCI, JACOPO TOMASI
     UNIVERSITY OF MEMPHIS: HENRY KURTZ, PRAKASHAN KORAMBATH
     UNIVERSITY OF ALBERTA: TOBY ZENG, MARIUSZ KLOBUKOWSKI
     UNIVERSITY OF NEW ENGLAND: MARK SPACKMAN
     MIE UNIVERSITY: HIROAKI UMEDA
     NAT. INST. OF ADVANCED INDUSTRIAL SCIENCE AND TECHNOLOGY: KAZUO KITAURA
     MICHIGAN STATE UNIVERSITY:
          KAROL KOWALSKI, MARTA WLOCH, JEFFREY GOUR, JESSE LUTZ,
          WEI LI, PIOTR PIECUCH
     UNIVERSITY OF SILESIA: MONIKA MUSIAL, STANISLAW KUCHARSKI
     FACULTES UNIVERSITAIRES NOTRE-DAME DE LA PAIX:
          OLIVIER QUINET, BENOIT CHAMPAGNE
     UNIVERSITY OF CALIFORNIA - SANTA BARBARA: BERNARD KIRTMAN
     INSTITUTE FOR MOLECULAR SCIENCE:
          KAZUYA ISHIMURA, MICHIO KATOUDA, AND SHIGERU NAGASE
     UNIVERSITY OF NOTRE DAME: ANNA POMOGAEVA, DAN CHIPMAN
     KYUSHU UNIVERSITY:
          HARUYUKI NAKANO,
          FENG LONG GU, JACEK KORCHOWIEC, MARCIN MAKOWSKI, AND YURIKO AOKI,
          HIROTOSHI MORI AND EISAKU MIYOSHI
     PENNSYLVANIA STATE UNIVERSITY:
          TZVETELIN IORDANOV, CHET SWALINA, JONATHAN SKONE,
          SHARON HAMMES-SCHIFFER
     WASEDA UNIVERSITY:
          MASATO KOBAYASHI, TOMOKO AKAMA, TSUGUKI TOUMA,
          TAKESHI YOSHIKAWA, YASUHIRO IKABATA, HIROMI NAKAI
     NANJING UNIVERSITY: SHUHUA LI
     UNIVERSITY OF NEBRASKA:
          PEIFENG SU, DEJUN SI, NANDUN THELLAMUREGE, YALI WANG, HUI LI
     UNIVERSITY OF ZURICH: ROBERTO PEVERATI, KIM BALDRIDGE
     N. COPERNICUS UNIVERSITY AND JACKSON STATE UNIVERSITY:
          MARIA BARYSZ
     UNIVERSITY OF COPENHAGEN: CASPER STEINMANN
     TOKYO INSTITUTE OF TECHNOLOGY: HIROYA NAKATA
     NAGOYA UNIVERSITY: YOSHIO NISHIMOTO, STEPHAN IRLE


 PARALLEL VERSION RUNNING ON       12 PROCESSORS IN       12 NODES.

 EXECUTION OF GAMESS BEGUN Thu Jan 17 17:57:11 2019

            ECHO OF THE FIRST FEW INPUT CARDS -
 INPUT CARD> $CONTRL SCFTYP=RHF CITYP=ALDET $END                                            
 INPUT CARD> $GUESS GUESS=HUCKEL $END                                                       
 INPUT CARD> $SYSTEM MWORDS=300 $END                                                        
 INPUT CARD> $CIDET SZ=0 GROUP=C2V NCORE=2 NACT=16 NELS=10 NSTGSS=6 $END                    
 INPUT CARD> $DATA                                                                          
 INPUT CARD>N2...HF...Double-zeta basis                                                     
 INPUT CARD>Cnv   2                                                                         
 INPUT CARD>                                                                                
 INPUT CARD>N     7.0    0.0      0.0     0.0                                               
 INPUT CARD>S   7                                                                           
 INPUT CARD>  1   5909.0000000              0.0011900                                       
 INPUT CARD>  2    887.5000000              0.0090990                                       
 INPUT CARD>  3    204.7000000              0.0441450                                       
 INPUT CARD>  4     59.8400000              0.1504640                                       
 INPUT CARD>  5     20.0000000              0.3567410                                       
 INPUT CARD>  6      7.1930000              0.4465330                                       
 INPUT CARD>  7      2.6860000              0.1456030                                       
 INPUT CARD>S   2                                                                           
 INPUT CARD>  1      7.1930000             -0.1604050                                       
 INPUT CARD>  2      0.7000000              1.0582150                                       
 INPUT CARD>S   1                                                                           
 INPUT CARD>  1      0.2133000              1.0000000                                       
 INPUT CARD>P   4                                                                           
 INPUT CARD>  1     26.7900000              0.0182540                                       
 INPUT CARD>  2      5.9560000              0.1164610                                       
 INPUT CARD>  3      1.7070000              0.3901780                                       
 INPUT CARD>  4      0.5314000              0.6371020                                       
 INPUT CARD>P   1                                                                           
 INPUT CARD>  1      0.1654000              1.0000000                                       
 INPUT CARD>                                                                                
 INPUT CARD>N     7.0    0.0      0.0     2.0                                               
 INPUT CARD>S   7                                                                           
 INPUT CARD>  1   5909.0000000              0.0011900                                       
 INPUT CARD>  2    887.5000000              0.0090990                                       
 INPUT CARD>  3    204.7000000              0.0441450                                       
 INPUT CARD>  4     59.8400000              0.1504640                                       
 INPUT CARD>  5     20.0000000              0.3567410                                       
 INPUT CARD>  6      7.1930000              0.4465330                                       
 INPUT CARD>  7      2.6860000              0.1456030                                       
 INPUT CARD>S   2                                                                           
 INPUT CARD>  1      7.1930000             -0.1604050                                       
 INPUT CARD>  2      0.7000000              1.0582150                                       
 INPUT CARD>S   1                                                                           
 INPUT CARD>  1      0.2133000              1.0000000                                       
 INPUT CARD>P   4                                                                           
 INPUT CARD>  1     26.7900000              0.0182540                                       
 INPUT CARD>  2      5.9560000              0.1164610                                       
 INPUT CARD>  3      1.7070000              0.3901780                                       
 INPUT CARD>  4      0.5314000              0.6371020                                       
 INPUT CARD>P   1                                                                           
  300000000 WORDS OF MEMORY AVAILABLE


     RUN TITLE
     ---------
 N2...HF...Double-zeta basis                                                     

 THE POINT GROUP OF THE MOLECULE IS CNV     
 THE ORDER OF THE PRINCIPAL AXIS IS     2

 ATOM      ATOMIC                      COORDINATES (BOHR)
           CHARGE         X                   Y                   Z
 N           7.0     0.0000000000        0.0000000000        0.0000000000
 N           7.0     0.0000000000        0.0000000000        3.7794519754

          INTERNUCLEAR DISTANCES (ANGS.)
          ------------------------------

                1 N          2 N     

   1 N       0.0000000    2.0000000 *
   2 N       2.0000000 *  0.0000000  

  * ... LESS THAN  3.000


     ATOMIC BASIS SET
     ----------------
 THE CONTRACTED PRIMITIVE FUNCTIONS HAVE BEEN UNNORMALIZED
 THE CONTRACTED BASIS FUNCTIONS ARE NOW NORMALIZED TO UNITY

  SHELL TYPE  PRIMITIVE        EXPONENT          CONTRACTION COEFFICIENT(S)

 N         

      1   S       1          5909.0000000    0.001189999548
      1   S       2           887.5000000    0.009098996542
      1   S       3           204.7000000    0.044144983225
      1   S       4            59.8400000    0.150463942825
      1   S       5            20.0000000    0.356740864442
      1   S       6             7.1930000    0.446532830321
      1   S       7             2.6860000    0.145602944672

      2   S       8             7.1930000   -0.160405033446
      2   S       9             0.7000000    1.058215220651

      3   S      10             0.2133000    1.000000000000

      4   P      11            26.7900000    0.018253998243
      4   P      12             5.9560000    0.116460988791
      4   P      13             1.7070000    0.390177962446
      4   P      14             0.5314000    0.637101938680

      5   P      15             0.1654000    1.000000000000

 N         

      6   S      16          5909.0000000    0.001189999548
      6   S      17           887.5000000    0.009098996542
      6   S      18           204.7000000    0.044144983225
      6   S      19            59.8400000    0.150463942825
      6   S      20            20.0000000    0.356740864442
      6   S      21             7.1930000    0.446532830321
      6   S      22             2.6860000    0.145602944672

      7   S      23             7.1930000   -0.160405033446
      7   S      24             0.7000000    1.058215220651

      8   S      25             0.2133000    1.000000000000

      9   P      26            26.7900000    0.018253998243
      9   P      27             5.9560000    0.116460988791
      9   P      28             1.7070000    0.390177962446
      9   P      29             0.5314000    0.637101938680

     10   P      30             0.1654000    1.000000000000

 TOTAL NUMBER OF BASIS SET SHELLS             =   10
 NUMBER OF CARTESIAN GAUSSIAN BASIS FUNCTIONS =   18
 NUMBER OF ELECTRONS                          =   14
 CHARGE OF MOLECULE                           =    0
 SPIN MULTIPLICITY                            =    1
 NUMBER OF OCCUPIED ORBITALS (ALPHA)          =    7
 NUMBER OF OCCUPIED ORBITALS (BETA )          =    7
 TOTAL NUMBER OF ATOMS                        =    2
 THE NUCLEAR REPULSION ENERGY IS       12.9648426064

 THIS MOLECULE IS RECOGNIZED AS BEING LINEAR,
 ORBITAL LZ DEGENERACY TOLERANCE ETOLLZ= 1.00E-06

     $CONTRL OPTIONS
     ---------------
 SCFTYP=RHF          RUNTYP=ENERGY       EXETYP=RUN     
 MPLEVL=       0     CITYP =ALDET        CCTYP =NONE         VBTYP =NONE    
 DFTTYP=NONE         TDDFT =NONE    
 MULT  =       1     ICHARG=       0     NZVAR =       0     COORD =UNIQUE  
 PP    =NONE         RELWFN=NONE         LOCAL =NONE         NUMGRD=       F
 ISPHER=      -1     NOSYM =       0     MAXIT =      30     UNITS =ANGS    
 PLTORB=       F     MOLPLT=       F     AIMPAC=       F     FRIEND=        
 NPRINT=       7     IREST =       0     GEOM  =INPUT   
 NORMF =       0     NORMP =       0     ITOL  =      20     ICUT  =       9
 INTTYP=BEST         GRDTYP=BEST         QMTTOL= 1.0E-06

     $SYSTEM OPTIONS
     ---------------
  REPLICATED MEMORY=   300000000 WORDS (ON EVERY NODE).
 DISTRIBUTED MEMDDI=           0 MILLION WORDS IN AGGREGATE,
 MEMDDI DISTRIBUTED OVER  12 PROCESSORS IS           0 WORDS/PROCESSOR.
 TOTAL MEMORY REQUESTED ON EACH PROCESSOR=   300000000 WORDS.
 TIMLIM=      525600.00 MINUTES, OR     365.0 DAYS.
 PARALL= T  BALTYP=  DLB     KDIAG=    0  COREFL= F
 MXSEQ2=     300 MXSEQ3=     150  mem10=         0

          ----------------
          PROPERTIES INPUT
          ----------------

     MOMENTS            FIELD           POTENTIAL          DENSITY
 IEMOM =       1   IEFLD =       0   IEPOT =       0   IEDEN =       0
 WHERE =COMASS     WHERE =NUCLEI     WHERE =NUCLEI     WHERE =NUCLEI  
 OUTPUT=BOTH       OUTPUT=BOTH       OUTPUT=BOTH       OUTPUT=BOTH    
 IEMINT=       0   IEFINT=       0                     IEDINT=       0
                                                       MORB  =       0
          EXTRAPOLATION IN EFFECT
          SOSCF IN EFFECT
 ORBITAL PRINTING OPTION: NPREO=     1    18     2     1

     -------------------------------
     INTEGRAL TRANSFORMATION OPTIONS
     -------------------------------
     NWORD  =            0
     CUTOFF = 1.0E-09     MPTRAN =       0
     DIRTRF =       F     AOINTS =DUP     

          ----------------------
          INTEGRAL INPUT OPTIONS
          ----------------------
 NOPK  =       1 NORDER=       0 SCHWRZ=       F

     ------------------------------------------
     THE POINT GROUP IS CNV, NAXIS= 2, ORDER= 4
     ------------------------------------------

     DIMENSIONS OF THE SYMMETRY SUBSPACES ARE
 A1  =   10     A2  =    0     B1  =    4     B2  =    4

 ..... DONE SETTING UP THE RUN .....
 CPU     0: STEP CPU TIME=     0.01 TOTAL CPU TIME=        0.0 (    0.0 MIN)
 TOTAL WALL CLOCK TIME=        0.0 SECONDS, CPU UTILIZATION IS  50.00%

          ********************
          1 ELECTRON INTEGRALS
          ********************
 ...... END OF ONE-ELECTRON INTEGRALS ......
 CPU     0: STEP CPU TIME=     0.00 TOTAL CPU TIME=        0.0 (    0.0 MIN)
 TOTAL WALL CLOCK TIME=        0.0 SECONDS, CPU UTILIZATION IS  20.00%

          -------------
          GUESS OPTIONS
          -------------
          GUESS =HUCKEL            NORB  =       0          NORDER=       0
          MIX   =       F          PRTMO =       F          PUNMO =       F
          TOLZ  = 1.0E-08          TOLE  = 1.0E-05
          SYMDEN=       F          PURIFY=       F

 INITIAL GUESS ORBITALS GENERATED BY HUCKEL   ROUTINE.
 HUCKEL GUESS REQUIRES      4352 WORDS.

 SYMMETRIES FOR INITIAL GUESS ORBITALS FOLLOW.   BOTH SET(S).
     7 ORBITALS ARE OCCUPIED (    2 CORE ORBITALS).
     3=A1       4=A1       5=A1       6=B1       7=B2       8=B1       9=B2  
    10=A1      11=A1      12=A1      13=A1      14=A1      15=B1      16=B1  
    17=B2  
 ...... END OF INITIAL ORBITAL SELECTION ......
 CPU     0: STEP CPU TIME=     0.00 TOTAL CPU TIME=        0.0 (    0.0 MIN)
 TOTAL WALL CLOCK TIME=        0.0 SECONDS, CPU UTILIZATION IS  20.00%

                    ----------------------
                    AO INTEGRAL TECHNOLOGY
                    ----------------------
     S,P,L SHELL ROTATED AXIS INTEGRALS, REPROGRAMMED BY
        KAZUYA ISHIMURA (IMS) AND JOSE SIERRA (SYNSTAR).
     S,P,D,L SHELL ROTATED AXIS INTEGRALS PROGRAMMED BY
        KAZUYA ISHIMURA (INSTITUTE FOR MOLECULAR SCIENCE).
     S,P,D,F,G SHELL TO TOTAL QUARTET ANGULAR MOMENTUM SUM 5,
        ERIC PROGRAM BY GRAHAM FLETCHER (ELORET AND NASA ADVANCED
        SUPERCOMPUTING DIVISION, AMES RESEARCH CENTER).
     S,P,D,F,G,L SHELL GENERAL RYS QUADRATURE PROGRAMMED BY
        MICHEL DUPUIS (PACIFIC NORTHWEST NATIONAL LABORATORY).

          --------------------
          2 ELECTRON INTEGRALS
          --------------------

 THE -PK- OPTION IS OFF, THE INTEGRALS ARE NOT IN SUPERMATRIX FORM.
 STORING   15000 INTEGRALS/RECORD ON DISK, USING 12 BYTES/INTEGRAL.
 TWO ELECTRON INTEGRAL EVALUATION REQUIRES   89411 WORDS OF MEMORY.
 II,JST,KST,LST =  1  1  1  1 NREC =         1 INTLOC =    1
 II,JST,KST,LST =  2  1  1  1 NREC =         1 INTLOC =    2
 II,JST,KST,LST =  3  1  1  1 NREC =         1 INTLOC =    7
 II,JST,KST,LST =  4  1  1  1 NREC =         1 INTLOC =   13
 II,JST,KST,LST =  5  1  1  1 NREC =         1 INTLOC =   58
 II,JST,KST,LST =  6  1  1  1 NREC =         1 INTLOC =   58
 II,JST,KST,LST =  7  1  1  1 NREC =         1 INTLOC =   58
 II,JST,KST,LST =  8  1  1  1 NREC =         1 INTLOC =   96
 II,JST,KST,LST =  9  1  1  1 NREC =         1 INTLOC =  134
 II,JST,KST,LST = 10  1  1  1 NREC =         1 INTLOC =  235
 TOTAL NUMBER OF NONZERO TWO-ELECTRON INTEGRALS =                4273
         12 INTEGRAL RECORDS WERE STORED ON DISK FILE  8.
  ...... END OF TWO-ELECTRON INTEGRALS .....
 CPU     0: STEP CPU TIME=     0.01 TOTAL CPU TIME=        0.0 (    0.0 MIN)
 TOTAL WALL CLOCK TIME=        0.1 SECONDS, CPU UTILIZATION IS  33.33%

          --------------------------
                 RHF SCF CALCULATION
          --------------------------

     NUCLEAR ENERGY =        12.9648426064
     MAXIT =   30     NPUNCH=    2
     EXTRAP=T  DAMP=F  SHIFT=F  RSTRCT=F  DIIS=F  DEM=F  SOSCF=T
     DENSITY MATRIX CONV=  1.00E-06
     SOSCF WILL OPTIMIZE      77 ORBITAL ROTATIONS, SOGTOL=   0.250
     MEMORY REQUIRED FOR RHF ITERS=     32828 WORDS.

 ITER EX DEM     TOTAL ENERGY        E CHANGE  DENSITY CHANGE     ORB. GRAD
   1  0  0     -108.1088878646  -108.1088878646   0.218371248   0.000000000
          ---------------START SECOND ORDER SCF---------------
   2  1  0     -108.3244456440    -0.2155577793   0.096015459   0.050855885
   3  2  0     -108.3371315327    -0.0126858887   0.012976905   0.011899281
   4  3  0     -108.3381897148    -0.0010581822   0.002651688   0.001631699
   5  4  0     -108.3382083112    -0.0000185964   0.000368831   0.000234546
   6  5  0     -108.3382085837    -0.0000002725   0.000080135   0.000048283
   7  6  0     -108.3382085982    -0.0000000145   0.000010003   0.000005194
   8  7  0     -108.3382085984    -0.0000000001   0.000001831   0.000001196
   9  8  0     -108.3382085984    -0.0000000000   0.000000123   0.000000116

          -----------------
          DENSITY CONVERGED
          -----------------
     TIME TO FORM FOCK OPERATORS=       0.0 SECONDS (       0.0 SEC/ITER)
     TIME TO SOLVE SCF EQUATIONS=       0.0 SECONDS (       0.0 SEC/ITER)

 FINAL RHF ENERGY IS     -108.3382085984 AFTER   9 ITERATIONS

 LZ VALUE ANALYSIS FOR THE MOS
 ----------------------------------------
 MO     1 (    1) HAS LZ(WEIGHT)= 0.00(100.0%) 
 MO     2 (    2) HAS LZ(WEIGHT)= 0.00(100.0%) 
 MO     3 (    3) HAS LZ(WEIGHT)= 0.00(100.0%) 
 MO     4 (    4) HAS LZ(WEIGHT)= 0.00(100.0%) 
 MO     5 (    5) HAS LZ(WEIGHT)= 0.00(100.0%) 
 MO     6 (    6) HAS LZ(WEIGHT)=-1.00( 50.0%)  1.00( 50.0%) 
 MO     7 (    6) HAS LZ(WEIGHT)=-1.00( 50.0%)  1.00( 50.0%) 
 MO     8 (    7) HAS LZ(WEIGHT)=-1.00( 50.0%)  1.00( 50.0%) 
 MO     9 (    7) HAS LZ(WEIGHT)=-1.00( 50.0%)  1.00( 50.0%) 
 MO    10 (    8) HAS LZ(WEIGHT)= 0.00(100.0%) 
 MO    11 (    9) HAS LZ(WEIGHT)= 0.00(100.0%) 
 MO    12 (   10) HAS LZ(WEIGHT)=-1.00( 50.0%)  1.00( 50.0%) 
 MO    13 (   10) HAS LZ(WEIGHT)=-1.00( 50.0%)  1.00( 50.0%) 
 MO    14 (   11) HAS LZ(WEIGHT)=-1.00( 50.0%)  1.00( 50.0%) 
 MO    15 (   11) HAS LZ(WEIGHT)=-1.00( 50.0%)  1.00( 50.0%) 
 MO    16 (   12) HAS LZ(WEIGHT)= 0.00(100.0%) 
 MO    17 (   13) HAS LZ(WEIGHT)= 0.00(100.0%) 
 MO    18 (   14) HAS LZ(WEIGHT)= 0.00(100.0%) 

          ------------
          EIGENVECTORS
          ------------

                      1          2          3          4          5
                  -15.8434   -15.8431    -1.1168    -0.9814    -0.4898
                     A1         A1         A1         A1         A1  
    1  N  1  S    0.706978  -0.707004  -0.166653   0.176281  -0.031372
    2  N  1  S   -0.000191   0.000337   0.386079  -0.423642   0.093707
    3  N  1  S    0.000993  -0.001097   0.332485  -0.372115   0.094254
    4  N  1  X    0.000000   0.000000   0.000000   0.000000   0.000000
    5  N  1  Y    0.000000   0.000000   0.000000   0.000000   0.000000
    6  N  1  Z    0.000691  -0.000480   0.051254   0.065140  -0.501536
    7  N  1  X    0.000000   0.000000   0.000000   0.000000   0.000000
    8  N  1  Y    0.000000   0.000000   0.000000   0.000000   0.000000
    9  N  1  Z   -0.000259   0.000062   0.018611   0.013458  -0.224455
   10  N  2  S    0.706978   0.707004  -0.166653  -0.176281  -0.031372
   11  N  2  S   -0.000191  -0.000337   0.386079   0.423642   0.093707
   12  N  2  S    0.000993   0.001097   0.332485   0.372115   0.094254
   13  N  2  X    0.000000   0.000000   0.000000   0.000000   0.000000
   14  N  2  Y    0.000000   0.000000   0.000000   0.000000   0.000000
   15  N  2  Z   -0.000691  -0.000480  -0.051254   0.065140   0.501536
   16  N  2  X    0.000000   0.000000   0.000000   0.000000   0.000000
   17  N  2  Y    0.000000   0.000000   0.000000   0.000000   0.000000
   18  N  2  Z    0.000259   0.000062  -0.018611   0.013458   0.224455

                      6          7          8          9         10
                   -0.4175    -0.4175    -0.1029    -0.1029     0.0079
                     B1         B2         B2         B1         A1  
    1  N  1  S    0.000000   0.000000   0.000000   0.000000  -0.047146
    2  N  1  S    0.000000   0.000000   0.000000   0.000000   0.112106
    3  N  1  S    0.000000   0.000000   0.000000   0.000000   0.227304
    4  N  1  X    0.487689   0.000000   0.000000   0.525654   0.000000
    5  N  1  Y    0.000000   0.487689   0.525654   0.000000   0.000000
    6  N  1  Z    0.000000   0.000000   0.000000   0.000000   0.556899
    7  N  1  X    0.273070   0.000000   0.000000   0.326173   0.000000
    8  N  1  Y    0.000000   0.273070   0.326173   0.000000   0.000000
    9  N  1  Z    0.000000   0.000000   0.000000   0.000000   0.458644
   10  N  2  S    0.000000   0.000000   0.000000   0.000000   0.047146
   11  N  2  S    0.000000   0.000000   0.000000   0.000000  -0.112106
   12  N  2  S    0.000000   0.000000   0.000000   0.000000  -0.227304
   13  N  2  X    0.487689   0.000000   0.000000  -0.525654   0.000000
   14  N  2  Y    0.000000   0.487689  -0.525654   0.000000   0.000000
   15  N  2  Z    0.000000   0.000000   0.000000   0.000000   0.556899
   16  N  2  X    0.273070   0.000000   0.000000  -0.326173   0.000000
   17  N  2  Y    0.000000   0.273070  -0.326173   0.000000   0.000000
   18  N  2  Z    0.000000   0.000000   0.000000   0.000000   0.458644

                     11         12         13         14         15
                    0.5993     0.6153     0.6153     0.7047     0.7047
                     A1         B1         B2         B1         B2  
    1  N  1  S   -0.042307   0.000000   0.000000   0.000000   0.000000
    2  N  1  S    0.174263   0.000000   0.000000   0.000000   0.000000
    3  N  1  S    0.291367   0.000000   0.000000   0.000000   0.000000
    4  N  1  X    0.000000  -0.671407   0.000000   0.659094   0.000000
    5  N  1  Y    0.000000   0.000000  -0.671407   0.000000   0.659094
    6  N  1  Z   -0.597960   0.000000   0.000000   0.000000   0.000000
    7  N  1  X    0.000000   0.676549   0.000000  -0.953186   0.000000
    8  N  1  Y    0.000000   0.000000   0.676549   0.000000  -0.953186
    9  N  1  Z    1.173406   0.000000   0.000000   0.000000   0.000000
   10  N  2  S    0.042307   0.000000   0.000000   0.000000   0.000000
   11  N  2  S   -0.174263   0.000000   0.000000   0.000000   0.000000
   12  N  2  S   -0.291367   0.000000   0.000000   0.000000   0.000000
   13  N  2  X    0.000000  -0.671407   0.000000  -0.659094   0.000000
   14  N  2  Y    0.000000   0.000000  -0.671407   0.000000  -0.659094
   15  N  2  Z   -0.597960   0.000000   0.000000   0.000000   0.000000
   16  N  2  X    0.000000   0.676549   0.000000   0.953186   0.000000
   17  N  2  Y    0.000000   0.000000   0.676549   0.000000   0.953186
   18  N  2  Z    1.173406   0.000000   0.000000   0.000000   0.000000

                     16         17         18
                    0.7515     0.9128     1.2683
                     A1         A1         A1  
    1  N  1  S    0.028610  -0.094974   0.056324
    2  N  1  S   -0.388600   1.029134  -1.300275
    3  N  1  S    0.555013  -0.865075   1.902240
    4  N  1  X    0.000000   0.000000   0.000000
    5  N  1  Y    0.000000   0.000000   0.000000
    6  N  1  Z    0.640366   0.305556  -0.124635
    7  N  1  X    0.000000   0.000000   0.000000
    8  N  1  Y    0.000000   0.000000   0.000000
    9  N  1  Z   -0.735857  -0.225667   0.911062
   10  N  2  S    0.028610  -0.094974  -0.056324
   11  N  2  S   -0.388600   1.029134   1.300275
   12  N  2  S    0.555013  -0.865075  -1.902240
   13  N  2  X    0.000000   0.000000   0.000000
   14  N  2  Y    0.000000   0.000000   0.000000
   15  N  2  Z   -0.640366  -0.305556  -0.124635
   16  N  2  X    0.000000   0.000000   0.000000
   17  N  2  Y    0.000000   0.000000   0.000000
   18  N  2  Z    0.735857   0.225667   0.911062
 ...... END OF RHF CALCULATION ......
 CPU     0: STEP CPU TIME=     0.01 TOTAL CPU TIME=        0.0 (    0.0 MIN)
 TOTAL WALL CLOCK TIME=        0.1 SECONDS, CPU UTILIZATION IS  42.86%

     ----------------------------------------------------------------
     PROPERTY VALUES FOR THE RHF   SELF-CONSISTENT FIELD WAVEFUNCTION
     ----------------------------------------------------------------

          -----------------
          ENERGY COMPONENTS
          -----------------

         WAVEFUNCTION NORMALIZATION =       1.0000000000

                ONE ELECTRON ENERGY =    -172.3868510872
                TWO ELECTRON ENERGY =      51.0837998825
           NUCLEAR REPULSION ENERGY =      12.9648426064
                                      ------------------
                       TOTAL ENERGY =    -108.3382085984

 ELECTRON-ELECTRON POTENTIAL ENERGY =      51.0837998825
  NUCLEUS-ELECTRON POTENTIAL ENERGY =    -279.5538575609
   NUCLEUS-NUCLEUS POTENTIAL ENERGY =      12.9648426064
                                      ------------------
             TOTAL POTENTIAL ENERGY =    -215.5052150721
               TOTAL KINETIC ENERGY =     107.1670064737
                 VIRIAL RATIO (V/T) =       2.0109287566

  ...... PI ENERGY ANALYSIS ......

 ENERGY ANALYSIS:
            FOCK ENERGY=    -70.2192509997
          BARE H ENERGY=   -172.3868510872
     ELECTRONIC ENERGY =   -121.3030510435
         KINETIC ENERGY=    107.1670064737
          N-N REPULSION=     12.9648426064
           TOTAL ENERGY=   -108.3382084371
        SIGMA PART(1+2)=   -107.8404309248
               (K,V1,2)=    101.1436986520   -248.2754154849     39.2912859081
           PI PART(1+2)=    -13.4626201186
               (K,V1,2)=      6.0233078217    -31.2784420760     11.7925141357
  SIGMA SKELETON, ERROR=    -94.8755883185      0.0000000000
             MIXED PART= 0.00000E+00 0.00000E+00 0.00000E+00 0.00000E+00
 ...... END OF PI ENERGY ANALYSIS ......

          ---------------------------------------
          MULLIKEN AND LOWDIN POPULATION ANALYSES
          ---------------------------------------

               ----- POPULATIONS IN EACH AO -----
                             MULLIKEN      LOWDIN
              1  N  1  S      2.00011     1.99662
              2  N  1  S      1.05949     1.02593
              3  N  1  S      0.91711     0.90056
              4  N  1  X      0.64281     0.60310
              5  N  1  Y      0.64281     0.60310
              6  N  1  Z      0.72175     0.65928
              7  N  1  X      0.35719     0.39690
              8  N  1  Y      0.35719     0.39690
              9  N  1  Z      0.30154     0.41761
             10  N  2  S      2.00011     1.99662
             11  N  2  S      1.05949     1.02593
             12  N  2  S      0.91711     0.90056
             13  N  2  X      0.64281     0.60310
             14  N  2  Y      0.64281     0.60310
             15  N  2  Z      0.72175     0.65928
             16  N  2  X      0.35719     0.39690
             17  N  2  Y      0.35719     0.39690
             18  N  2  Z      0.30154     0.41761

          ----- MULLIKEN ATOMIC OVERLAP POPULATIONS -----
          (OFF-DIAGONAL ELEMENTS NEED TO BE MULTIPLIED BY 2)

             1           2

    1    6.6774487
    2    0.3225513   6.6774487

          TOTAL MULLIKEN AND LOWDIN ATOMIC POPULATIONS
       ATOM         MULL.POP.    CHARGE          LOW.POP.     CHARGE
    1 N             7.000000    0.000000         7.000000   -0.000000
    2 N             7.000000    0.000000         7.000000    0.000000

          ---------------------
          ELECTROSTATIC MOMENTS
          ---------------------

 POINT   1           X           Y           Z (BOHR)    CHARGE
                 0.000000    0.000000    1.889726        0.00 (A.U.)
         DX          DY          DZ         /D/  (DEBYE)
     0.000000    0.000000    0.000000    0.000000
 ...... END OF PROPERTY EVALUATION ......
 CPU     0: STEP CPU TIME=     0.00 TOTAL CPU TIME=        0.0 (    0.0 MIN)
 TOTAL WALL CLOCK TIME=        0.1 SECONDS, CPU UTILIZATION IS  30.00%

 DETERMINANT CI OPTIONS   NRNFG   NPFLG
 INTEGRAL TRANSFORMATION    1       0
 DIAGONALIZE HAMILTONIAN    1       0
 FORM 1E- DENSITY MATRIX    1       0
 FORM 2E- DENSITY MATRIX    0       0

     --------------------------------------------------
          AMES LABORATORY DETERMINANTAL FULL CI
     PROGRAM WRITTEN BY JOE IVANIC AND KLAUS RUEDENBERG
     --------------------------------------------------

 THE POINT GROUP                  =   C2V     
 THE STATE SYMMETRY               =   A1      
 NUMBER OF CORE ORBITALS          =    2
 NUMBER OF ACTIVE ORBITALS        =   16
 NUMBER OF ALPHA ELECTRONS        =    7 (   5 ACTIVE)
 NUMBER OF BETA ELECTRONS         =    7 (   5 ACTIVE)
 NUMBER OF OCCUPIED ORBITALS      =   18
 NUMBER OF CI STATES REQUESTED    =    1
 NUMBER OF CI STARTING VECTORS    =    6
 MAX. NO. OF CI EXPANSION VECTORS =   12
 SIZE OF INITIAL CI GUESS MATRIX  =  300
 MAX. NO. OF CI ITERS/STATE       =  100
 CI DIAGONALIZATION CRITERION     = 1.00E-06
 CI PROPERTIES WILL BE FOUND FOR ROOT NUMBER   1
 1E- DENSITY MATRIX OPTIONS ARE 1

 CORRELATION ENERGY ANALYSIS      =    F

 SYMMETRIES FOR THE   2 CORE,  16 ACTIVE ARE

     CORE= A1    A1  

   ACTIVE= A1    A1    A1    B1    B2    B2    B1    A1    A1    B1  
           B2    B1    B2    A1    A1    A1  

     --------------------------------------------
     PARTIAL TWO ELECTRON INTEGRAL TRANSFORMATION
     --------------------------------------------

 NUMBER OF CORE MOLECULAR ORBITALS     =    2
 NUMBER OF OCCUPIED MOLECULAR ORBITALS =   18
 TOTAL NUMBER OF MOLECULAR ORBITALS    =   18
 TOTAL NUMBER OF ATOMIC ORBITALS       =   18
 THRESHOLD FOR KEEPING TRANSFORMED 2E- INTEGRALS = 1.000E-09

 -------------------------------     ------------------------------
 DISTRIBUTED DATA TRANSFORMATION     PROGRAM WRITTEN BY G. FLETCHER
 -------------------------------     ------------------------------

 THE DISTRIBUTED MEMORY REQUIRED FOR THIS STEP IS MEMDDI=         1 MWORDS
 CREATING DISTRIBUTED STORAGE FOR [OCC OCC|OCC OCC] INTEGRALS
 DDI: Creating Array [0] - 171 x 171 = 29241 words.
 CREATING WORKSPACE OF SIZE VVOO
 DDI: Creating Array [1] - 171 x 171 = 29241 words.
 FOR   12 PROCESSORS, THE REPLICATED MEMORY NEEDED IS       58507 WORDS.

      DIRECT 4-INDEX TRANSFORMATION 
      SCHWARZ INEQUALITY TEST SKIPPED          0 INTEGRAL BLOCKS
 ----- FROZEN CORE ENERGY =       -95.8145120707
 ... END OF INTEGRAL TRANSFORMATION ...
 CPU     0: STEP CPU TIME=     0.01 TOTAL CPU TIME=        0.0 (    0.0 MIN)
 TOTAL WALL CLOCK TIME=        0.1 SECONDS, CPU UTILIZATION IS  26.67%

     --------------------------------------------------
          AMES LABORATORY DETERMINANTAL FULL CI
     PROGRAM WRITTEN BY JOE IVANIC AND KLAUS RUEDENBERG
     --------------------------------------------------

 THE NUMBER OF DETERMINANTS HAVING SPACE SYMMETRY A1 
 IN POINT GROUP C2V  WITH SZ=  0.0 IS        4777056
 THE DETERMINANT FULL CI REQUIRES       119865995 WORDS
 INITIAL CI VECTOR GUESS TIME  :          1.2
 INITIAL FULL CI ITERATION TIME:          5.8

 ITERATION      ENERGY           GRADIENT
     0     -108.7343339912     0.51299874
     1     -108.8553038307     0.24195594
     2     -108.8690095855     0.16365209
     3     -108.8755913560     0.08183983
     4     -108.8773742103     0.05051919
     5     -108.8780960072     0.03096177
     6     -108.8783351998     0.01829411
     7     -108.8784085901     0.01111305
     8     -108.8784565708     0.00891940
     9     -108.8784827746     0.00679529
    10     -108.8784973622     0.00469548
    11     -108.8785024672     0.00346782
    12     -108.8785062823     0.00195342
    13     -108.8785072362     0.00125548
    14     -108.8785077756     0.00098215
    15     -108.8785080926     0.00080361
    16     -108.8785082784     0.00045780
    17     -108.8785083320     0.00025996
    18     -108.8785083534     0.00020272
    19     -108.8785083643     0.00014927
    20     -108.8785083761     0.00016070
    21     -108.8785083870     0.00013535
    22     -108.8785083917     0.00009315
    23     -108.8785083941     0.00006540
    24     -108.8785083954     0.00004989
    25     -108.8785083960     0.00003166
    26     -108.8785083963     0.00002564
    27     -108.8785083965     0.00002317
    28     -108.8785083967     0.00001598
    29     -108.8785083968     0.00001326
    30     -108.8785083969     0.00001558
    31     -108.8785083970     0.00001117
    32     -108.8785083970     0.00000861
    33     -108.8785083970     0.00000704
    34     -108.8785083971     0.00000461
    35     -108.8785083971     0.00000224
    36     -108.8785083971     0.00000096

 CONVERGED STATE    1 ENERGY=     -108.8785083971 IN   36 ITERS

 ALL STATES CONVERGED.

 CI EIGENVECTORS WILL BE LABELED IN GROUP=C2V     
 PRINTING CI COEFFICIENTS LARGER THAN  0.050000

 STATE   1  ENERGY=      -108.8785083971  S=  0.00  SZ=  0.00  SPACE SYM=A1  

      ALPHA       |      BETA        | COEFFICIENT
------------------|------------------|------------
 1111100000000000 | 1111100000000000 |   0.5779072
 1111010000000000 | 1111010000000000 |  -0.3312549
 1110101000000000 | 1110101000000000 |  -0.3312549
 1110011000000000 | 1110011000000000 |   0.2154299
 1111001000000000 | 1110110000000000 |   0.2025811
 1110110000000000 | 1111001000000000 |   0.2025811
 1101100100000000 | 1101100100000000 |  -0.1553100
 1110101000000000 | 1111010000000000 |   0.1222471
 1111010000000000 | 1110101000000000 |   0.1222471
 1100101100000000 | 1100101100000000 |   0.1155554
 1101010100000000 | 1101010100000000 |   0.1155554
 1111000100000000 | 1101110000000000 |   0.1059767
 1101101000000000 | 1110100100000000 |  -0.1059767
 1101110000000000 | 1111000100000000 |   0.1059767
 1110100100000000 | 1101101000000000 |  -0.1059767
 1100011100000000 | 1100011100000000 |  -0.1004884
 1101100100000000 | 1110101000000000 |  -0.0829656
 1110101000000000 | 1101100100000000 |  -0.0829656
 1111010000000000 | 1101100100000000 |   0.0829656
 1101100100000000 | 1111010000000000 |   0.0829656
 1111100000000000 | 1110011000000000 |  -0.0803337
 1110011000000000 | 1111100000000000 |  -0.0803337
 1110001100000000 | 1100111000000000 |  -0.0725033
 1101011000000000 | 1110010100000000 |   0.0725033
 1100111000000000 | 1110001100000000 |  -0.0725033
 1110010100000000 | 1101011000000000 |   0.0725033
 1101001100000000 | 1100110100000000 |  -0.0698151
 1100110100000000 | 1101001100000000 |  -0.0698151
 1110011000000000 | 1101010100000000 |   0.0592933
 1101010100000000 | 1110011000000000 |   0.0592933
 1100101100000000 | 1110011000000000 |  -0.0592933
 1110011000000000 | 1100101100000000 |  -0.0592933
 ..... DONE WITH DETERMINANT CI COMPUTATION .....
 CPU     0: STEP CPU TIME=    97.98 TOTAL CPU TIME=       98.0 (    1.6 MIN)
 TOTAL WALL CLOCK TIME=      128.6 SECONDS, CPU UTILIZATION IS  76.21%

     ---------------------------
     ONE PARTICLE DENSITY MATRIX
     ---------------------------

 DENSITY MATRIX WILL BE SAVED FOR   1-TH STATE WITH S= 0.00

 CI EIGENSTATE   1 TOTAL ENERGY =     -108.8785083971

          NATURAL ORBITALS IN ATOMIC ORBITAL BASIS
          ----------------------------------------

                      1          2          3          4          5
                    2.0000     2.0000     1.9854     1.9765     1.6770
                     A1         A1         A1         A1         A1  
    1  N  1  S    0.706978   0.707004  -0.167157   0.175822  -0.004627
    2  N  1  S   -0.000191  -0.000337   0.370266  -0.403567   0.011472
    3  N  1  S    0.000993   0.001097   0.366616  -0.400522   0.064799
    4  N  1  X    0.000000   0.000000   0.000000   0.000000   0.000000
    5  N  1  Y    0.000000   0.000000   0.000000   0.000000   0.000000
    6  N  1  Z    0.000691   0.000480  -0.018734   0.035316  -0.518499
    7  N  1  X    0.000000   0.000000   0.000000   0.000000   0.000000
    8  N  1  Y    0.000000   0.000000   0.000000   0.000000   0.000000
    9  N  1  Z   -0.000259  -0.000062  -0.019045   0.012339  -0.211013
   10  N  2  S    0.706978  -0.707004  -0.167157  -0.175822  -0.004627
   11  N  2  S   -0.000191   0.000337   0.370266   0.403567   0.011472
   12  N  2  S    0.000993  -0.001097   0.366616   0.400522   0.064799
   13  N  2  X    0.000000   0.000000   0.000000   0.000000   0.000000
   14  N  2  Y    0.000000   0.000000   0.000000   0.000000   0.000000
   15  N  2  Z   -0.000691   0.000480   0.018734   0.035316   0.518499
   16  N  2  X    0.000000   0.000000   0.000000   0.000000   0.000000
   17  N  2  Y    0.000000   0.000000   0.000000   0.000000   0.000000
   18  N  2  Z    0.000259  -0.000062   0.019045   0.012339   0.211013

                      6          7          8          9         10
                    1.3355     1.3355     0.6561     0.6561     0.3200
                     B1         B2         B1         B2         A1  
    1  N  1  S    0.000000   0.000000   0.000000   0.000000  -0.032151
    2  N  1  S    0.000000   0.000000   0.000000   0.000000   0.070960
    3  N  1  S    0.000000   0.000000   0.000000   0.000000   0.138495
    4  N  1  X    0.528784   0.000000   0.595756   0.000000   0.000000
    5  N  1  Y    0.000000   0.528784   0.000000   0.595756   0.000000
    6  N  1  Z    0.000000   0.000000   0.000000   0.000000   0.665113
    7  N  1  X    0.230159   0.000000   0.218039   0.000000   0.000000
    8  N  1  Y    0.000000   0.230159   0.000000   0.218039   0.000000
    9  N  1  Z    0.000000   0.000000   0.000000   0.000000   0.215772
   10  N  2  S    0.000000   0.000000   0.000000   0.000000   0.032151
   11  N  2  S    0.000000   0.000000   0.000000   0.000000  -0.070960
   12  N  2  S    0.000000   0.000000   0.000000   0.000000  -0.138495
   13  N  2  X    0.528784   0.000000  -0.595756   0.000000   0.000000
   14  N  2  Y    0.000000   0.528784   0.000000  -0.595756   0.000000
   15  N  2  Z    0.000000   0.000000   0.000000   0.000000   0.665113
   16  N  2  X    0.230159   0.000000  -0.218039   0.000000   0.000000
   17  N  2  Y    0.000000   0.230159   0.000000  -0.218039   0.000000
   18  N  2  Z    0.000000   0.000000   0.000000   0.000000   0.215772

                     11         12         13         14         15
                    0.0131     0.0091     0.0088     0.0088     0.0066
                     A1         A1         B1         B2         A1  
    1  N  1  S   -0.101465  -0.078887   0.000000   0.000000  -0.018385
    2  N  1  S    1.101446   1.004144   0.000000   0.000000   0.132490
    3  N  1  S   -1.014379  -0.984968   0.000000   0.000000   0.090850
    4  N  1  X    0.000000   0.000000  -0.639543   0.000000   0.000000
    5  N  1  Y    0.000000   0.000000   0.000000  -0.639543   0.000000
    6  N  1  Z   -0.037380  -0.285154   0.000000   0.000000   0.697861
    7  N  1  X    0.000000   0.000000   0.692324   0.000000   0.000000
    8  N  1  Y    0.000000   0.000000   0.000000   0.692324   0.000000
    9  N  1  Z    0.136374   0.342462   0.000000   0.000000  -0.761348
   10  N  2  S   -0.101465   0.078887   0.000000   0.000000  -0.018385
   11  N  2  S    1.101446  -1.004144   0.000000   0.000000   0.132490
   12  N  2  S   -1.014379   0.984968   0.000000   0.000000   0.090850
   13  N  2  X    0.000000   0.000000  -0.639543   0.000000   0.000000
   14  N  2  Y    0.000000   0.000000   0.000000  -0.639543   0.000000
   15  N  2  Z    0.037380  -0.285154   0.000000   0.000000  -0.697861
   16  N  2  X    0.000000   0.000000   0.692324   0.000000   0.000000
   17  N  2  Y    0.000000   0.000000   0.000000   0.692324   0.000000
   18  N  2  Z   -0.136374   0.342462   0.000000   0.000000   0.761348

                     16         17         18
                    0.0046     0.0046     0.0021
                     B1         B2         A1  
    1  N  1  S    0.000000   0.000000   0.009463
    2  N  1  S    0.000000   0.000000  -0.858439
    3  N  1  S    0.000000   0.000000   1.656438
    4  N  1  X    0.596483   0.000000   0.000000
    5  N  1  Y    0.000000   0.596483   0.000000
    6  N  1  Z    0.000000   0.000000  -0.403157
    7  N  1  X   -0.983571   0.000000   0.000000
    8  N  1  Y    0.000000  -0.983571   0.000000
    9  N  1  Z    0.000000   0.000000   1.501153
   10  N  2  S    0.000000   0.000000  -0.009463
   11  N  2  S    0.000000   0.000000   0.858439
   12  N  2  S    0.000000   0.000000  -1.656438
   13  N  2  X   -0.596483   0.000000   0.000000
   14  N  2  Y    0.000000  -0.596483   0.000000
   15  N  2  Z    0.000000   0.000000  -0.403157
   16  N  2  X    0.983571   0.000000   0.000000
   17  N  2  Y    0.000000   0.983571   0.000000
   18  N  2  Z    0.000000   0.000000   1.501153
 ..... DONE WITH ONE PARTICLE DENSITY MATRIX .....
 CPU     0: STEP CPU TIME=     0.96 TOTAL CPU TIME=       99.0 (    1.6 MIN)
 TOTAL WALL CLOCK TIME=      129.7 SECONDS, CPU UTILIZATION IS  76.34%

     --------------------------------------------------------
     ALDET CI PROPERTIES...FOR THE WAVEFUNCTION OF STATE    1
               USING THE EXPECTATION VALUE DENSITY
     --------------------------------------------------------

          -----------------
          ENERGY COMPONENTS
          -----------------

         WAVEFUNCTION NORMALIZATION =       1.0000000000

                ONE ELECTRON ENERGY =    -173.3363993313
                TWO ELECTRON ENERGY =      51.4930483278
           NUCLEAR REPULSION ENERGY =      12.9648426064
                                      ------------------
                       TOTAL ENERGY =    -108.8785083971

 ELECTRON-ELECTRON POTENTIAL ENERGY =      51.4930483278
  NUCLEUS-ELECTRON POTENTIAL ENERGY =    -281.8450207568
   NUCLEUS-NUCLEUS POTENTIAL ENERGY =      12.9648426064
                                      ------------------
             TOTAL POTENTIAL ENERGY =    -217.3871298226
               TOTAL KINETIC ENERGY =     108.5086214256
                 VIRIAL RATIO (V/T) =       2.0034088256

          ---------------------------------------
          MULLIKEN AND LOWDIN POPULATION ANALYSES
          ---------------------------------------

               ----- POPULATIONS IN EACH AO -----
                             MULLIKEN      LOWDIN
              1  N  1  S      2.00012     1.99611
              2  N  1  S      0.99379     0.98946
              3  N  1  S      0.98609     0.93919
              4  N  1  X      0.74643     0.70414
              5  N  1  Y      0.74643     0.70414
              6  N  1  Z      0.76254     0.70679
              7  N  1  X      0.25612     0.29841
              8  N  1  Y      0.25612     0.29841
              9  N  1  Z      0.25236     0.36336
             10  N  2  S      2.00012     1.99611
             11  N  2  S      0.99379     0.98946
             12  N  2  S      0.98609     0.93919
             13  N  2  X      0.74643     0.70414
             14  N  2  Y      0.74643     0.70414
             15  N  2  Z      0.76254     0.70679
             16  N  2  X      0.25612     0.29841
             17  N  2  Y      0.25612     0.29841
             18  N  2  Z      0.25236     0.36336

          ----- MULLIKEN ATOMIC OVERLAP POPULATIONS -----
          (OFF-DIAGONAL ELEMENTS NEED TO BE MULTIPLIED BY 2)

             1           2

    1    6.9204167
    2    0.0795833   6.9204167

          TOTAL MULLIKEN AND LOWDIN ATOMIC POPULATIONS
       ATOM         MULL.POP.    CHARGE          LOW.POP.     CHARGE
    1 N             7.000000    0.000000         7.000000    0.000000
    2 N             7.000000    0.000000         7.000000    0.000000

          ---------------------
          ELECTROSTATIC MOMENTS
          ---------------------

 POINT   1           X           Y           Z (BOHR)    CHARGE
                 0.000000    0.000000    1.889726        0.00 (A.U.)
         DX          DY          DZ         /D/  (DEBYE)
     0.000000    0.000000    0.000000    0.000000
 ...... END OF PROPERTY EVALUATION ......
 CPU     0: STEP CPU TIME=     0.01 TOTAL CPU TIME=       99.0 (    1.6 MIN)
 TOTAL WALL CLOCK TIME=      130.2 SECONDS, CPU UTILIZATION IS  76.05%
             119866886  WORDS OF DYNAMIC MEMORY USED
 EXECUTION OF GAMESS TERMINATED NORMALLY Thu Jan 17 17:59:21 2019
 DDI: 305760 bytes (0.3 MB / 0 MWords) used by master data server.

 ----------------------------------------
 CPU timing information for all processes
 ========================================
 0: 93.252 + 5.892 = 99.144
 1: 93.400 + 7.544 = 100.944
 2: 93.28 + 7.320 = 100.348
 3: 91.444 + 8.80 = 99.524
 4: 93.268 + 7.600 = 100.868
 5: 92.444 + 7.812 = 100.256
 6: 92.264 + 6.788 = 99.52
 7: 92.596 + 6.244 = 98.840
 8: 92.780 + 5.616 = 98.396
 9: 92.448 + 7.196 = 99.644
 10: 92.824 + 7.488 = 100.312
 11: 92.540 + 6.920 = 99.460
 12: 0.324 + 3.736 = 4.60
 13: 0.04 + 0.00 = 0.04
 14: 0.04 + 0.00 = 0.04
 15: 0.00 + 0.04 = 0.04
 16: 0.00 + 0.08 = 0.08
 17: 0.04 + 0.04 = 0.08
 18: 0.04 + 0.00 = 0.04
 19: 0.00 + 0.04 = 0.04
 20: 0.00 + 0.08 = 0.08
 21: 0.00 + 0.08 = 0.08
 22: 0.04 + 0.00 = 0.04
 23: 0.00 + 0.04 = 0.04
 ----------------------------------------
 ddikick.x: exited gracefully.
unset echo
----- accounting info -----
Files used on the master node localhost were:
-rw-rw-r-- 1 maho maho    13429 Jan 17 17:59 ./N2.SV/2.0/N2.SV.fullCI.2.0.gamess.dat
-rw------- 1 maho maho     1813 Jan 17 17:57 ./N2.SV/2.0/N2.SV.fullCI.2.0.gamess.F05
-rw-rw-r-- 1 maho maho   180016 Jan 17 17:57 ./N2.SV/2.0/N2.SV.fullCI.2.0.gamess.F08
-rw-rw-r-- 1 maho maho     1376 Jan 17 17:57 ./N2.SV/2.0/N2.SV.fullCI.2.0.gamess.F09
-rw-rw-r-- 1 maho maho  1865040 Jan 17 17:59 ./N2.SV/2.0/N2.SV.fullCI.2.0.gamess.F10
-rw-rw-r-- 1 maho maho 38216480 Jan 17 17:59 ./N2.SV/2.0/N2.SV.fullCI.2.0.gamess.F12
-rw------- 1 maho maho     1813 Jan 17 17:57 ./N2.SV/2.0/N2.SV.fullCI.2.0.gamess.inp
-rw-rw-r-- 1 maho maho    48091 Jan 17 17:59 ./N2.SV/2.0/N2.SV.fullCI.2.0.gamess.log
ls: No match.
ls: No match.
ls: No match.
Thu Jan 17 17:59:24 JST 2019
0.0u 0.0s 2:13.60 0.0% 0+0k 0+8io 0pf+0w
