----- GAMESS execution script 'rungms' -----
This job is running on host localhost
under operating system Linux at Thu Jan 17 17:46:00 JST 2019
Available scratch disk space (Kbyte units) at beginning of the job is
Filesystem     1K-blocks      Used Available Use% Mounted on
/dev/sda1      895286904 141741888 708043988  17% /
GAMESS temporary binary files will be written to .
GAMESS supplementary output files will be written to .
Copying input file N2.SV/1.4/N2.SV.fullCI.1.4.gamess.inp to your run's scratch directory...
cp N2.SV/1.4/N2.SV.fullCI.1.4.gamess.inp ./N2.SV/1.4/N2.SV.fullCI.1.4.gamess.F05
unset echo
/work/pubchem/pm6/pkg/gamess_intel/ddikick.x /work/pubchem/pm6/pkg/gamess_intel/gamess.00.x N2.SV/1.4/N2.SV.fullCI.1.4.gamess -ddi 12 12 localhost localhost localhost localhost localhost localhost localhost localhost localhost localhost localhost localhost -scr .

 Distributed Data Interface kickoff program.
 Initiating 12 compute processes on 12 nodes to run the following command:
 /work/pubchem/pm6/pkg/gamess_intel/gamess.00.x N2.SV/1.4/N2.SV.fullCI.1.4.gamess 

          ******************************************************
          *         GAMESS VERSION =  5 DEC 2014 (R1)          *
          *             FROM IOWA STATE UNIVERSITY             *
          * M.W.SCHMIDT, K.K.BALDRIDGE, J.A.BOATZ, S.T.ELBERT, *
          *   M.S.GORDON, J.H.JENSEN, S.KOSEKI, N.MATSUNAGA,   *
          *          K.A.NGUYEN, S.J.SU, T.L.WINDUS,           *
          *       TOGETHER WITH M.DUPUIS, J.A.MONTGOMERY       *
          *         J.COMPUT.CHEM.  14, 1347-1363(1993)        *
          **************** 64 BIT INTEL VERSION ****************

  SINCE 1993, STUDENTS AND POSTDOCS WORKING AT IOWA STATE UNIVERSITY
  AND ALSO IN THEIR VARIOUS JOBS AFTER LEAVING ISU HAVE MADE IMPORTANT
  CONTRIBUTIONS TO THE CODE:
     IVANA ADAMOVIC, CHRISTINE AIKENS, YURI ALEXEEV, POOJA ARORA,
     ANDREY ASADCHEV, ROB BELL, PRADIPTA BANDYOPADHYAY, JONATHAN BENTZ,
     BRETT BODE, KURT BRORSEN, CALEB CARLIN, GALINA CHABAN, WEI CHEN,
     CHEOL HO CHOI, PAUL DAY, ALBERT DEFUSCO, NUWAN DESILVA, TIM DUDLEY,
     DMITRI FEDOROV, GRAHAM FLETCHER, MARK FREITAG, KURT GLAESEMANN,
     DAN KEMP, GRANT MERRILL, NORIYUKI MINEZAWA, JONATHAN MULLIN,
     TAKESHI NAGATA, SEAN NEDD, HEATHER NETZLOFF, BOSILJKA NJEGIC, RYAN OLSON,
     MIKE PAK, SPENCER PRUITT, LUKE ROSKOP, JIM SHOEMAKER, LYUDMILA SLIPCHENKO,
     TONY SMITH, SAROM SOK, JIE SONG, TETSUYA TAKETSUGU, SIMON WEBB,
     PENG XU, SOOHAENG YOO, FEDERICO ZAHARIEV

  ADDITIONAL CODE HAS BEEN PROVIDED BY COLLABORATORS IN OTHER GROUPS:
     IOWA STATE UNIVERSITY:
          JOE IVANIC, AARON WEST, LAIMUTIS BYTAUTAS, KLAUS RUEDENBERG
     UNIVERSITY OF TOKYO: KIMIHIKO HIRAO, TAKAHITO NAKAJIMA,
          TAKAO TSUNEDA, MUNEAKI KAMIYA, SUSUMU YANAGISAWA,
          KIYOSHI YAGI, MAHITO CHIBA, SEIKEN TOKURA, NAOAKI KAWAKAMI
     UNIVERSITY OF AARHUS: FRANK JENSEN
     UNIVERSITY OF IOWA: VISVALDAS KAIRYS, HUI LI
     NATIONAL INST. OF STANDARDS AND TECHNOLOGY: WALT STEVENS, DAVID GARMER
     UNIVERSITY OF PISA: BENEDETTA MENNUCCI, JACOPO TOMASI
     UNIVERSITY OF MEMPHIS: HENRY KURTZ, PRAKASHAN KORAMBATH
     UNIVERSITY OF ALBERTA: TOBY ZENG, MARIUSZ KLOBUKOWSKI
     UNIVERSITY OF NEW ENGLAND: MARK SPACKMAN
     MIE UNIVERSITY: HIROAKI UMEDA
     NAT. INST. OF ADVANCED INDUSTRIAL SCIENCE AND TECHNOLOGY: KAZUO KITAURA
     MICHIGAN STATE UNIVERSITY:
          KAROL KOWALSKI, MARTA WLOCH, JEFFREY GOUR, JESSE LUTZ,
          WEI LI, PIOTR PIECUCH
     UNIVERSITY OF SILESIA: MONIKA MUSIAL, STANISLAW KUCHARSKI
     FACULTES UNIVERSITAIRES NOTRE-DAME DE LA PAIX:
          OLIVIER QUINET, BENOIT CHAMPAGNE
     UNIVERSITY OF CALIFORNIA - SANTA BARBARA: BERNARD KIRTMAN
     INSTITUTE FOR MOLECULAR SCIENCE:
          KAZUYA ISHIMURA, MICHIO KATOUDA, AND SHIGERU NAGASE
     UNIVERSITY OF NOTRE DAME: ANNA POMOGAEVA, DAN CHIPMAN
     KYUSHU UNIVERSITY:
          HARUYUKI NAKANO,
          FENG LONG GU, JACEK KORCHOWIEC, MARCIN MAKOWSKI, AND YURIKO AOKI,
          HIROTOSHI MORI AND EISAKU MIYOSHI
     PENNSYLVANIA STATE UNIVERSITY:
          TZVETELIN IORDANOV, CHET SWALINA, JONATHAN SKONE,
          SHARON HAMMES-SCHIFFER
     WASEDA UNIVERSITY:
          MASATO KOBAYASHI, TOMOKO AKAMA, TSUGUKI TOUMA,
          TAKESHI YOSHIKAWA, YASUHIRO IKABATA, HIROMI NAKAI
     NANJING UNIVERSITY: SHUHUA LI
     UNIVERSITY OF NEBRASKA:
          PEIFENG SU, DEJUN SI, NANDUN THELLAMUREGE, YALI WANG, HUI LI
     UNIVERSITY OF ZURICH: ROBERTO PEVERATI, KIM BALDRIDGE
     N. COPERNICUS UNIVERSITY AND JACKSON STATE UNIVERSITY:
          MARIA BARYSZ
     UNIVERSITY OF COPENHAGEN: CASPER STEINMANN
     TOKYO INSTITUTE OF TECHNOLOGY: HIROYA NAKATA
     NAGOYA UNIVERSITY: YOSHIO NISHIMOTO, STEPHAN IRLE


 PARALLEL VERSION RUNNING ON       12 PROCESSORS IN       12 NODES.

 EXECUTION OF GAMESS BEGUN Thu Jan 17 17:46:00 2019

            ECHO OF THE FIRST FEW INPUT CARDS -
 INPUT CARD> $CONTRL SCFTYP=RHF CITYP=ALDET $END                                            
 INPUT CARD> $GUESS GUESS=HUCKEL $END                                                       
 INPUT CARD> $SYSTEM MWORDS=300 $END                                                        
 INPUT CARD> $CIDET SZ=0 GROUP=C2V NCORE=2 NACT=16 NELS=10 NSTGSS=6 $END                    
 INPUT CARD> $DATA                                                                          
 INPUT CARD>N2...HF...Double-zeta basis                                                     
 INPUT CARD>Cnv   2                                                                         
 INPUT CARD>                                                                                
 INPUT CARD>N     7.0    0.0      0.0     0.0                                               
 INPUT CARD>S   7                                                                           
 INPUT CARD>  1   5909.0000000              0.0011900                                       
 INPUT CARD>  2    887.5000000              0.0090990                                       
 INPUT CARD>  3    204.7000000              0.0441450                                       
 INPUT CARD>  4     59.8400000              0.1504640                                       
 INPUT CARD>  5     20.0000000              0.3567410                                       
 INPUT CARD>  6      7.1930000              0.4465330                                       
 INPUT CARD>  7      2.6860000              0.1456030                                       
 INPUT CARD>S   2                                                                           
 INPUT CARD>  1      7.1930000             -0.1604050                                       
 INPUT CARD>  2      0.7000000              1.0582150                                       
 INPUT CARD>S   1                                                                           
 INPUT CARD>  1      0.2133000              1.0000000                                       
 INPUT CARD>P   4                                                                           
 INPUT CARD>  1     26.7900000              0.0182540                                       
 INPUT CARD>  2      5.9560000              0.1164610                                       
 INPUT CARD>  3      1.7070000              0.3901780                                       
 INPUT CARD>  4      0.5314000              0.6371020                                       
 INPUT CARD>P   1                                                                           
 INPUT CARD>  1      0.1654000              1.0000000                                       
 INPUT CARD>                                                                                
 INPUT CARD>N     7.0    0.0      0.0     1.4                                               
 INPUT CARD>S   7                                                                           
 INPUT CARD>  1   5909.0000000              0.0011900                                       
 INPUT CARD>  2    887.5000000              0.0090990                                       
 INPUT CARD>  3    204.7000000              0.0441450                                       
 INPUT CARD>  4     59.8400000              0.1504640                                       
 INPUT CARD>  5     20.0000000              0.3567410                                       
 INPUT CARD>  6      7.1930000              0.4465330                                       
 INPUT CARD>  7      2.6860000              0.1456030                                       
 INPUT CARD>S   2                                                                           
 INPUT CARD>  1      7.1930000             -0.1604050                                       
 INPUT CARD>  2      0.7000000              1.0582150                                       
 INPUT CARD>S   1                                                                           
 INPUT CARD>  1      0.2133000              1.0000000                                       
 INPUT CARD>P   4                                                                           
 INPUT CARD>  1     26.7900000              0.0182540                                       
 INPUT CARD>  2      5.9560000              0.1164610                                       
 INPUT CARD>  3      1.7070000              0.3901780                                       
 INPUT CARD>  4      0.5314000              0.6371020                                       
 INPUT CARD>P   1                                                                           
  300000000 WORDS OF MEMORY AVAILABLE


     RUN TITLE
     ---------
 N2...HF...Double-zeta basis                                                     

 THE POINT GROUP OF THE MOLECULE IS CNV     
 THE ORDER OF THE PRINCIPAL AXIS IS     2

 ATOM      ATOMIC                      COORDINATES (BOHR)
           CHARGE         X                   Y                   Z
 N           7.0     0.0000000000        0.0000000000        0.0000000000
 N           7.0     0.0000000000        0.0000000000        2.6456163828

          INTERNUCLEAR DISTANCES (ANGS.)
          ------------------------------

                1 N          2 N     

   1 N       0.0000000    1.4000000 *
   2 N       1.4000000 *  0.0000000  

  * ... LESS THAN  3.000


     ATOMIC BASIS SET
     ----------------
 THE CONTRACTED PRIMITIVE FUNCTIONS HAVE BEEN UNNORMALIZED
 THE CONTRACTED BASIS FUNCTIONS ARE NOW NORMALIZED TO UNITY

  SHELL TYPE  PRIMITIVE        EXPONENT          CONTRACTION COEFFICIENT(S)

 N         

      1   S       1          5909.0000000    0.001189999548
      1   S       2           887.5000000    0.009098996542
      1   S       3           204.7000000    0.044144983225
      1   S       4            59.8400000    0.150463942825
      1   S       5            20.0000000    0.356740864442
      1   S       6             7.1930000    0.446532830321
      1   S       7             2.6860000    0.145602944672

      2   S       8             7.1930000   -0.160405033446
      2   S       9             0.7000000    1.058215220651

      3   S      10             0.2133000    1.000000000000

      4   P      11            26.7900000    0.018253998243
      4   P      12             5.9560000    0.116460988791
      4   P      13             1.7070000    0.390177962446
      4   P      14             0.5314000    0.637101938680

      5   P      15             0.1654000    1.000000000000

 N         

      6   S      16          5909.0000000    0.001189999548
      6   S      17           887.5000000    0.009098996542
      6   S      18           204.7000000    0.044144983225
      6   S      19            59.8400000    0.150463942825
      6   S      20            20.0000000    0.356740864442
      6   S      21             7.1930000    0.446532830321
      6   S      22             2.6860000    0.145602944672

      7   S      23             7.1930000   -0.160405033446
      7   S      24             0.7000000    1.058215220651

      8   S      25             0.2133000    1.000000000000

      9   P      26            26.7900000    0.018253998243
      9   P      27             5.9560000    0.116460988791
      9   P      28             1.7070000    0.390177962446
      9   P      29             0.5314000    0.637101938680

     10   P      30             0.1654000    1.000000000000

 TOTAL NUMBER OF BASIS SET SHELLS             =   10
 NUMBER OF CARTESIAN GAUSSIAN BASIS FUNCTIONS =   18
 NUMBER OF ELECTRONS                          =   14
 CHARGE OF MOLECULE                           =    0
 SPIN MULTIPLICITY                            =    1
 NUMBER OF OCCUPIED ORBITALS (ALPHA)          =    7
 NUMBER OF OCCUPIED ORBITALS (BETA )          =    7
 TOTAL NUMBER OF ATOMS                        =    2
 THE NUCLEAR REPULSION ENERGY IS       18.5212037234

 THIS MOLECULE IS RECOGNIZED AS BEING LINEAR,
 ORBITAL LZ DEGENERACY TOLERANCE ETOLLZ= 1.00E-06

     $CONTRL OPTIONS
     ---------------
 SCFTYP=RHF          RUNTYP=ENERGY       EXETYP=RUN     
 MPLEVL=       0     CITYP =ALDET        CCTYP =NONE         VBTYP =NONE    
 DFTTYP=NONE         TDDFT =NONE    
 MULT  =       1     ICHARG=       0     NZVAR =       0     COORD =UNIQUE  
 PP    =NONE         RELWFN=NONE         LOCAL =NONE         NUMGRD=       F
 ISPHER=      -1     NOSYM =       0     MAXIT =      30     UNITS =ANGS    
 PLTORB=       F     MOLPLT=       F     AIMPAC=       F     FRIEND=        
 NPRINT=       7     IREST =       0     GEOM  =INPUT   
 NORMF =       0     NORMP =       0     ITOL  =      20     ICUT  =       9
 INTTYP=BEST         GRDTYP=BEST         QMTTOL= 1.0E-06

     $SYSTEM OPTIONS
     ---------------
  REPLICATED MEMORY=   300000000 WORDS (ON EVERY NODE).
 DISTRIBUTED MEMDDI=           0 MILLION WORDS IN AGGREGATE,
 MEMDDI DISTRIBUTED OVER  12 PROCESSORS IS           0 WORDS/PROCESSOR.
 TOTAL MEMORY REQUESTED ON EACH PROCESSOR=   300000000 WORDS.
 TIMLIM=      525600.00 MINUTES, OR     365.0 DAYS.
 PARALL= T  BALTYP=  DLB     KDIAG=    0  COREFL= F
 MXSEQ2=     300 MXSEQ3=     150  mem10=         0

          ----------------
          PROPERTIES INPUT
          ----------------

     MOMENTS            FIELD           POTENTIAL          DENSITY
 IEMOM =       1   IEFLD =       0   IEPOT =       0   IEDEN =       0
 WHERE =COMASS     WHERE =NUCLEI     WHERE =NUCLEI     WHERE =NUCLEI  
 OUTPUT=BOTH       OUTPUT=BOTH       OUTPUT=BOTH       OUTPUT=BOTH    
 IEMINT=       0   IEFINT=       0                     IEDINT=       0
                                                       MORB  =       0
          EXTRAPOLATION IN EFFECT
          SOSCF IN EFFECT
 ORBITAL PRINTING OPTION: NPREO=     1    18     2     1

     -------------------------------
     INTEGRAL TRANSFORMATION OPTIONS
     -------------------------------
     NWORD  =            0
     CUTOFF = 1.0E-09     MPTRAN =       0
     DIRTRF =       F     AOINTS =DUP     

          ----------------------
          INTEGRAL INPUT OPTIONS
          ----------------------
 NOPK  =       1 NORDER=       0 SCHWRZ=       F

     ------------------------------------------
     THE POINT GROUP IS CNV, NAXIS= 2, ORDER= 4
     ------------------------------------------

     DIMENSIONS OF THE SYMMETRY SUBSPACES ARE
 A1  =   10     A2  =    0     B1  =    4     B2  =    4

 ..... DONE SETTING UP THE RUN .....
 CPU     0: STEP CPU TIME=     0.02 TOTAL CPU TIME=        0.0 (    0.0 MIN)
 TOTAL WALL CLOCK TIME=        0.0 SECONDS, CPU UTILIZATION IS 100.00%

          ********************
          1 ELECTRON INTEGRALS
          ********************
 ...... END OF ONE-ELECTRON INTEGRALS ......
 CPU     0: STEP CPU TIME=     0.00 TOTAL CPU TIME=        0.0 (    0.0 MIN)
 TOTAL WALL CLOCK TIME=        0.1 SECONDS, CPU UTILIZATION IS  33.33%

          -------------
          GUESS OPTIONS
          -------------
          GUESS =HUCKEL            NORB  =       0          NORDER=       0
          MIX   =       F          PRTMO =       F          PUNMO =       F
          TOLZ  = 1.0E-08          TOLE  = 1.0E-05
          SYMDEN=       F          PURIFY=       F

 INITIAL GUESS ORBITALS GENERATED BY HUCKEL   ROUTINE.
 HUCKEL GUESS REQUIRES      4352 WORDS.

 SYMMETRIES FOR INITIAL GUESS ORBITALS FOLLOW.   BOTH SET(S).
     7 ORBITALS ARE OCCUPIED (    2 CORE ORBITALS).
     3=A1       4=A1       5=B2       6=B1       7=A1       8=B1       9=B2  
    10=A1      11=A1      12=A1      13=A1      14=A1      15=B1      16=B1  
    17=B2  
 ...... END OF INITIAL ORBITAL SELECTION ......
 CPU     0: STEP CPU TIME=     0.00 TOTAL CPU TIME=        0.0 (    0.0 MIN)
 TOTAL WALL CLOCK TIME=        0.1 SECONDS, CPU UTILIZATION IS  33.33%

                    ----------------------
                    AO INTEGRAL TECHNOLOGY
                    ----------------------
     S,P,L SHELL ROTATED AXIS INTEGRALS, REPROGRAMMED BY
        KAZUYA ISHIMURA (IMS) AND JOSE SIERRA (SYNSTAR).
     S,P,D,L SHELL ROTATED AXIS INTEGRALS PROGRAMMED BY
        KAZUYA ISHIMURA (INSTITUTE FOR MOLECULAR SCIENCE).
     S,P,D,F,G SHELL TO TOTAL QUARTET ANGULAR MOMENTUM SUM 5,
        ERIC PROGRAM BY GRAHAM FLETCHER (ELORET AND NASA ADVANCED
        SUPERCOMPUTING DIVISION, AMES RESEARCH CENTER).
     S,P,D,F,G,L SHELL GENERAL RYS QUADRATURE PROGRAMMED BY
        MICHEL DUPUIS (PACIFIC NORTHWEST NATIONAL LABORATORY).

          --------------------
          2 ELECTRON INTEGRALS
          --------------------

 THE -PK- OPTION IS OFF, THE INTEGRALS ARE NOT IN SUPERMATRIX FORM.
 STORING   15000 INTEGRALS/RECORD ON DISK, USING 12 BYTES/INTEGRAL.
 TWO ELECTRON INTEGRAL EVALUATION REQUIRES   89411 WORDS OF MEMORY.
 II,JST,KST,LST =  1  1  1  1 NREC =         1 INTLOC =    1
 II,JST,KST,LST =  2  1  1  1 NREC =         1 INTLOC =    2
 II,JST,KST,LST =  3  1  1  1 NREC =         1 INTLOC =    7
 II,JST,KST,LST =  4  1  1  1 NREC =         1 INTLOC =   22
 II,JST,KST,LST =  5  1  1  1 NREC =         1 INTLOC =   22
 II,JST,KST,LST =  6  1  1  1 NREC =         1 INTLOC =   82
 II,JST,KST,LST =  7  1  1  1 NREC =         1 INTLOC =   82
 II,JST,KST,LST =  8  1  1  1 NREC =         1 INTLOC =  183
 II,JST,KST,LST =  9  1  1  1 NREC =         1 INTLOC =  221
 II,JST,KST,LST = 10  1  1  1 NREC =         1 INTLOC =  358
 TOTAL NUMBER OF NONZERO TWO-ELECTRON INTEGRALS =                4349
         12 INTEGRAL RECORDS WERE STORED ON DISK FILE  8.
  ...... END OF TWO-ELECTRON INTEGRALS .....
 CPU     0: STEP CPU TIME=     0.02 TOTAL CPU TIME=        0.0 (    0.0 MIN)
 TOTAL WALL CLOCK TIME=        0.1 SECONDS, CPU UTILIZATION IS  50.00%

          --------------------------
                 RHF SCF CALCULATION
          --------------------------

     NUCLEAR ENERGY =        18.5212037234
     MAXIT =   30     NPUNCH=    2
     EXTRAP=T  DAMP=F  SHIFT=F  RSTRCT=F  DIIS=F  DEM=F  SOSCF=T
     DENSITY MATRIX CONV=  1.00E-06
     SOSCF WILL OPTIMIZE      77 ORBITAL ROTATIONS, SOGTOL=   0.250
     MEMORY REQUIRED FOR RHF ITERS=     32828 WORDS.

 ITER EX DEM     TOTAL ENERGY        E CHANGE  DENSITY CHANGE     ORB. GRAD
   1  0  0     -108.4915646999  -108.4915646999   0.213545169   0.000000000
          ---------------START SECOND ORDER SCF---------------
   2  1  0     -108.7110624161    -0.2194977162   0.064361088   0.056136740
   3  2  0     -108.7237484690    -0.0126860529   0.016367641   0.013116720
   4  3  0     -108.7247374199    -0.0009889510   0.003713891   0.001285204
   5  4  0     -108.7247463729    -0.0000089529   0.000434963   0.000315791
   6  5  0     -108.7247466854    -0.0000003126   0.000079012   0.000048979
   7  6  0     -108.7247466939    -0.0000000085   0.000008952   0.000005422
   8  7  0     -108.7247466940    -0.0000000001   0.000001888   0.000000827
   9  8  0     -108.7247466940    -0.0000000000   0.000000181   0.000000134

          -----------------
          DENSITY CONVERGED
          -----------------
     TIME TO FORM FOCK OPERATORS=       0.0 SECONDS (       0.0 SEC/ITER)
     TIME TO SOLVE SCF EQUATIONS=       0.0 SECONDS (       0.0 SEC/ITER)

 FINAL RHF ENERGY IS     -108.7247466940 AFTER   9 ITERATIONS

 LZ VALUE ANALYSIS FOR THE MOS
 ----------------------------------------
 MO     1 (    1) HAS LZ(WEIGHT)= 0.00(100.0%) 
 MO     2 (    2) HAS LZ(WEIGHT)= 0.00(100.0%) 
 MO     3 (    3) HAS LZ(WEIGHT)= 0.00(100.0%) 
 MO     4 (    4) HAS LZ(WEIGHT)= 0.00(100.0%) 
 MO     5 (    5) HAS LZ(WEIGHT)= 0.00(100.0%) 
 MO     6 (    6) HAS LZ(WEIGHT)=-1.00( 50.0%)  1.00( 50.0%) 
 MO     7 (    6) HAS LZ(WEIGHT)=-1.00( 50.0%)  1.00( 50.0%) 
 MO     8 (    7) HAS LZ(WEIGHT)=-1.00( 50.0%)  1.00( 50.0%) 
 MO     9 (    7) HAS LZ(WEIGHT)=-1.00( 50.0%)  1.00( 50.0%) 
 MO    10 (    8) HAS LZ(WEIGHT)= 0.00(100.0%) 
 MO    11 (    9) HAS LZ(WEIGHT)=-1.00( 50.0%)  1.00( 50.0%) 
 MO    12 (    9) HAS LZ(WEIGHT)=-1.00( 50.0%)  1.00( 50.0%) 
 MO    13 (   10) HAS LZ(WEIGHT)= 0.00(100.0%) 
 MO    14 (   11) HAS LZ(WEIGHT)= 0.00(100.0%) 
 MO    15 (   12) HAS LZ(WEIGHT)=-1.00( 50.0%)  1.00( 50.0%) 
 MO    16 (   12) HAS LZ(WEIGHT)=-1.00( 50.0%)  1.00( 50.0%) 
 MO    17 (   13) HAS LZ(WEIGHT)= 0.00(100.0%) 
 MO    18 (   14) HAS LZ(WEIGHT)= 0.00(100.0%) 

          ------------
          EIGENVECTORS
          ------------

                      1          2          3          4          5
                  -15.7832   -15.7822    -1.3191    -0.8681    -0.5910
                     A1         A1         A1         A1         A1  
    1  N  1  S    0.706794  -0.706907  -0.160969   0.169471   0.056310
    2  N  1  S    0.000518  -0.000022   0.368541  -0.399863  -0.111076
    3  N  1  S    0.000886  -0.001679   0.244596  -0.436086  -0.248160
    4  N  1  X    0.000000   0.000000   0.000000   0.000000   0.000000
    5  N  1  Y    0.000000   0.000000   0.000000   0.000000   0.000000
    6  N  1  Z    0.001399  -0.001112   0.183125   0.157364   0.530736
    7  N  1  X    0.000000   0.000000   0.000000   0.000000   0.000000
    8  N  1  Y    0.000000   0.000000   0.000000   0.000000   0.000000
    9  N  1  Z   -0.000616  -0.000099   0.008630   0.018222   0.146834
   10  N  2  S    0.706794   0.706907  -0.160969  -0.169471   0.056310
   11  N  2  S    0.000518   0.000022   0.368541   0.399863  -0.111076
   12  N  2  S    0.000886   0.001679   0.244596   0.436086  -0.248160
   13  N  2  X    0.000000   0.000000   0.000000   0.000000   0.000000
   14  N  2  Y    0.000000   0.000000   0.000000   0.000000   0.000000
   15  N  2  Z   -0.001399  -0.001112  -0.183125   0.157364  -0.530736
   16  N  2  X    0.000000   0.000000   0.000000   0.000000   0.000000
   17  N  2  Y    0.000000   0.000000   0.000000   0.000000   0.000000
   18  N  2  Z    0.000616  -0.000099  -0.008630   0.018222  -0.146834

                      6          7          8          9         10
                   -0.5224    -0.5224     0.0187     0.0187     0.3094
                     B1         B2         B1         B2         A1  
    1  N  1  S    0.000000   0.000000   0.000000   0.000000   0.102553
    2  N  1  S    0.000000   0.000000   0.000000   0.000000  -0.178462
    3  N  1  S    0.000000   0.000000   0.000000   0.000000  -1.423102
    4  N  1  X    0.489530   0.000000   0.530393   0.000000   0.000000
    5  N  1  Y    0.000000   0.489530   0.000000   0.530393   0.000000
    6  N  1  Z    0.000000   0.000000   0.000000   0.000000  -0.381931
    7  N  1  X    0.223919   0.000000   0.453381   0.000000   0.000000
    8  N  1  Y    0.000000   0.223919   0.000000   0.453381   0.000000
    9  N  1  Z    0.000000   0.000000   0.000000   0.000000  -1.268694
   10  N  2  S    0.000000   0.000000   0.000000   0.000000  -0.102553
   11  N  2  S    0.000000   0.000000   0.000000   0.000000   0.178462
   12  N  2  S    0.000000   0.000000   0.000000   0.000000   1.423102
   13  N  2  X    0.489530   0.000000  -0.530393   0.000000   0.000000
   14  N  2  Y    0.000000   0.489530   0.000000  -0.530393   0.000000
   15  N  2  Z    0.000000   0.000000   0.000000   0.000000  -0.381931
   16  N  2  X    0.223919   0.000000  -0.453381   0.000000   0.000000
   17  N  2  Y    0.000000   0.223919   0.000000  -0.453381   0.000000
   18  N  2  Z    0.000000   0.000000   0.000000   0.000000  -1.268694

                     11         12         13         14         15
                    0.6353     0.6353     0.6467     0.6602     0.7216
                     B1         B2         A1         A1         B2  
    1  N  1  S    0.000000   0.000000   0.010510  -0.019385   0.000000
    2  N  1  S    0.000000   0.000000  -0.108927   0.035403   0.000000
    3  N  1  S    0.000000   0.000000   0.761100  -0.328092   0.000000
    4  N  1  X    0.664127   0.000000   0.000000   0.000000   0.000000
    5  N  1  Y    0.000000   0.664127   0.000000   0.000000  -0.667074
    6  N  1  Z    0.000000   0.000000  -0.819287  -0.555813   0.000000
    7  N  1  X   -0.650213   0.000000   0.000000   0.000000   0.000000
    8  N  1  Y    0.000000  -0.650213   0.000000   0.000000   1.143704
    9  N  1  Z    0.000000   0.000000   1.043012   0.952538   0.000000
   10  N  2  S    0.000000   0.000000  -0.010510  -0.019385   0.000000
   11  N  2  S    0.000000   0.000000   0.108927   0.035403   0.000000
   12  N  2  S    0.000000   0.000000  -0.761100  -0.328092   0.000000
   13  N  2  X    0.664127   0.000000   0.000000   0.000000   0.000000
   14  N  2  Y    0.000000   0.664127   0.000000   0.000000   0.667074
   15  N  2  Z    0.000000   0.000000  -0.819287   0.555813   0.000000
   16  N  2  X   -0.650213   0.000000   0.000000   0.000000   0.000000
   17  N  2  Y    0.000000  -0.650213   0.000000   0.000000  -1.143704
   18  N  2  Z    0.000000   0.000000   1.043012  -0.952538   0.000000

                     16         17         18
                    0.7216     0.9311     1.4419
                     B1         A1         A1  
    1  N  1  S    0.000000  -0.086880  -0.044188
    2  N  1  S    0.000000   1.157379   1.449108
    3  N  1  S    0.000000  -0.954035  -3.461189
    4  N  1  X   -0.667074   0.000000   0.000000
    5  N  1  Y    0.000000   0.000000   0.000000
    6  N  1  Z    0.000000   0.028814  -0.094951
    7  N  1  X    1.143704   0.000000   0.000000
    8  N  1  Y    0.000000   0.000000   0.000000
    9  N  1  Z    0.000000  -0.096689  -1.431150
   10  N  2  S    0.000000  -0.086880   0.044188
   11  N  2  S    0.000000   1.157379  -1.449108
   12  N  2  S    0.000000  -0.954035   3.461189
   13  N  2  X    0.667074   0.000000   0.000000
   14  N  2  Y    0.000000   0.000000   0.000000
   15  N  2  Z    0.000000  -0.028814  -0.094951
   16  N  2  X   -1.143704   0.000000   0.000000
   17  N  2  Y    0.000000   0.000000   0.000000
   18  N  2  Z    0.000000   0.096689  -1.431150
 ...... END OF RHF CALCULATION ......
 CPU     0: STEP CPU TIME=     0.00 TOTAL CPU TIME=        0.0 (    0.0 MIN)
 TOTAL WALL CLOCK TIME=        0.1 SECONDS, CPU UTILIZATION IS  50.00%

     ----------------------------------------------------------------
     PROPERTY VALUES FOR THE RHF   SELF-CONSISTENT FIELD WAVEFUNCTION
     ----------------------------------------------------------------

          -----------------
          ENERGY COMPONENTS
          -----------------

         WAVEFUNCTION NORMALIZATION =       1.0000000000

                ONE ELECTRON ENERGY =    -183.7151677124
                TWO ELECTRON ENERGY =      56.4692172949
           NUCLEAR REPULSION ENERGY =      18.5212037234
                                      ------------------
                       TOTAL ENERGY =    -108.7247466940

 ELECTRON-ELECTRON POTENTIAL ENERGY =      56.4692172949
  NUCLEUS-ELECTRON POTENTIAL ENERGY =    -291.4325970892
   NUCLEUS-NUCLEUS POTENTIAL ENERGY =      18.5212037234
                                      ------------------
             TOTAL POTENTIAL ENERGY =    -216.4421760709
               TOTAL KINETIC ENERGY =     107.7174293769
                 VIRIAL RATIO (V/T) =       2.0093514794

  ...... PI ENERGY ANALYSIS ......

 ENERGY ANALYSIS:
            FOCK ENERGY=    -70.7767336723
          BARE H ENERGY=   -183.7151677124
     ELECTRONIC ENERGY =   -127.2459506923
         KINETIC ENERGY=    107.7174293769
          N-N REPULSION=     18.5212037234
           TOTAL ENERGY=   -108.7247469689
        SIGMA PART(1+2)=   -111.9576606065
               (K,V1,2)=    101.6699525392   -256.8980896270     43.2704764813
           PI PART(1+2)=    -15.2882900858
               (K,V1,2)=      6.0474768377    -34.5345074622     13.1987405388
  SIGMA SKELETON, ERROR=    -93.4364568831     -0.0000000000
             MIXED PART= 0.00000E+00 0.00000E+00 0.00000E+00 0.00000E+00
 ...... END OF PI ENERGY ANALYSIS ......

          ---------------------------------------
          MULLIKEN AND LOWDIN POPULATION ANALYSES
          ---------------------------------------

               ----- POPULATIONS IN EACH AO -----
                             MULLIKEN      LOWDIN
              1  N  1  S      1.99997     1.99524
              2  N  1  S      1.00040     0.93628
              3  N  1  S      0.90629     0.78979
              4  N  1  X      0.68157     0.62224
              5  N  1  Y      0.68157     0.62224
              6  N  1  Z      0.96995     0.91438
              7  N  1  X      0.31843     0.37776
              8  N  1  Y      0.31843     0.37776
              9  N  1  Z      0.12339     0.36431
             10  N  2  S      1.99997     1.99524
             11  N  2  S      1.00040     0.93628
             12  N  2  S      0.90629     0.78979
             13  N  2  X      0.68157     0.62224
             14  N  2  Y      0.68157     0.62224
             15  N  2  Z      0.96995     0.91438
             16  N  2  X      0.31843     0.37776
             17  N  2  Y      0.31843     0.37776
             18  N  2  Z      0.12339     0.36431

          ----- MULLIKEN ATOMIC OVERLAP POPULATIONS -----
          (OFF-DIAGONAL ELEMENTS NEED TO BE MULTIPLIED BY 2)

             1           2

    1    6.5681995
    2    0.4318005   6.5681995

          TOTAL MULLIKEN AND LOWDIN ATOMIC POPULATIONS
       ATOM         MULL.POP.    CHARGE          LOW.POP.     CHARGE
    1 N             7.000000    0.000000         7.000000    0.000000
    2 N             7.000000    0.000000         7.000000    0.000000

          ---------------------
          ELECTROSTATIC MOMENTS
          ---------------------

 POINT   1           X           Y           Z (BOHR)    CHARGE
                 0.000000    0.000000    1.322808        0.00 (A.U.)
         DX          DY          DZ         /D/  (DEBYE)
     0.000000    0.000000    0.000000    0.000000
 ...... END OF PROPERTY EVALUATION ......
 CPU     0: STEP CPU TIME=     0.00 TOTAL CPU TIME=        0.0 (    0.0 MIN)
 TOTAL WALL CLOCK TIME=        0.1 SECONDS, CPU UTILIZATION IS  33.33%

 DETERMINANT CI OPTIONS   NRNFG   NPFLG
 INTEGRAL TRANSFORMATION    1       0
 DIAGONALIZE HAMILTONIAN    1       0
 FORM 1E- DENSITY MATRIX    1       0
 FORM 2E- DENSITY MATRIX    0       0

     --------------------------------------------------
          AMES LABORATORY DETERMINANTAL FULL CI
     PROGRAM WRITTEN BY JOE IVANIC AND KLAUS RUEDENBERG
     --------------------------------------------------

 THE POINT GROUP                  =   C2V     
 THE STATE SYMMETRY               =   A1      
 NUMBER OF CORE ORBITALS          =    2
 NUMBER OF ACTIVE ORBITALS        =   16
 NUMBER OF ALPHA ELECTRONS        =    7 (   5 ACTIVE)
 NUMBER OF BETA ELECTRONS         =    7 (   5 ACTIVE)
 NUMBER OF OCCUPIED ORBITALS      =   18
 NUMBER OF CI STATES REQUESTED    =    1
 NUMBER OF CI STARTING VECTORS    =    6
 MAX. NO. OF CI EXPANSION VECTORS =   12
 SIZE OF INITIAL CI GUESS MATRIX  =  300
 MAX. NO. OF CI ITERS/STATE       =  100
 CI DIAGONALIZATION CRITERION     = 1.00E-06
 CI PROPERTIES WILL BE FOUND FOR ROOT NUMBER   1
 1E- DENSITY MATRIX OPTIONS ARE 1

 CORRELATION ENERGY ANALYSIS      =    F

 SYMMETRIES FOR THE   2 CORE,  16 ACTIVE ARE

     CORE= A1    A1  

   ACTIVE= A1    A1    A1    B1    B2    B1    B2    A1    B1    B2  
           A1    A1    B2    B1    A1    A1  

     --------------------------------------------
     PARTIAL TWO ELECTRON INTEGRAL TRANSFORMATION
     --------------------------------------------

 NUMBER OF CORE MOLECULAR ORBITALS     =    2
 NUMBER OF OCCUPIED MOLECULAR ORBITALS =   18
 TOTAL NUMBER OF MOLECULAR ORBITALS    =   18
 TOTAL NUMBER OF ATOMIC ORBITALS       =   18
 THRESHOLD FOR KEEPING TRANSFORMED 2E- INTEGRALS = 1.000E-09

 -------------------------------     ------------------------------
 DISTRIBUTED DATA TRANSFORMATION     PROGRAM WRITTEN BY G. FLETCHER
 -------------------------------     ------------------------------

 THE DISTRIBUTED MEMORY REQUIRED FOR THIS STEP IS MEMDDI=         1 MWORDS
 CREATING DISTRIBUTED STORAGE FOR [OCC OCC|OCC OCC] INTEGRALS
 DDI: Creating Array [0] - 171 x 171 = 29241 words.
 CREATING WORKSPACE OF SIZE VVOO
 DDI: Creating Array [1] - 171 x 171 = 29241 words.
 FOR   12 PROCESSORS, THE REPLICATED MEMORY NEEDED IS       58507 WORDS.

      DIRECT 4-INDEX TRANSFORMATION 
      SCHWARZ INEQUALITY TEST SKIPPED          0 INTEGRAL BLOCKS
 ----- FROZEN CORE ENERGY =       -98.5359000080
 ... END OF INTEGRAL TRANSFORMATION ...
 CPU     0: STEP CPU TIME=     0.01 TOTAL CPU TIME=        0.0 (    0.0 MIN)
 TOTAL WALL CLOCK TIME=        0.2 SECONDS, CPU UTILIZATION IS  31.25%

     --------------------------------------------------
          AMES LABORATORY DETERMINANTAL FULL CI
     PROGRAM WRITTEN BY JOE IVANIC AND KLAUS RUEDENBERG
     --------------------------------------------------

 THE NUMBER OF DETERMINANTS HAVING SPACE SYMMETRY A1 
 IN POINT GROUP C2V  WITH SZ=  0.0 IS        4777056
 THE DETERMINANT FULL CI REQUIRES       119865995 WORDS
 INITIAL CI VECTOR GUESS TIME  :          1.5
 INITIAL FULL CI ITERATION TIME:          6.2

 ITERATION      ENERGY           GRADIENT
     0     -108.9166997037     0.54470271
     1     -109.0253932116     0.22236383
     2     -109.0369548014     0.10202070
     3     -109.0390780222     0.04676913
     4     -109.0395927664     0.02305108
     5     -109.0397227323     0.01240730
     6     -109.0397611905     0.00657440
     7     -109.0397692508     0.00354267
     8     -109.0397732236     0.00223073
     9     -109.0397745824     0.00129099
    10     -109.0397749542     0.00070289
    11     -109.0397750618     0.00033105
    12     -109.0397750877     0.00013505
    13     -109.0397750918     0.00006837
    14     -109.0397750933     0.00003955
    15     -109.0397750937     0.00002140
    16     -109.0397750938     0.00001013
    17     -109.0397750938     0.00000430
    18     -109.0397750938     0.00000211
    19     -109.0397750938     0.00000116
    20     -109.0397750938     0.00000056

 CONVERGED STATE    1 ENERGY=     -109.0397750938 IN   20 ITERS

 ALL STATES CONVERGED.

 CI EIGENVECTORS WILL BE LABELED IN GROUP=C2V     
 PRINTING CI COEFFICIENTS LARGER THAN  0.050000

 STATE   1  ENERGY=      -109.0397750938  S=  0.00  SZ=  0.00  SPACE SYM=A1  

      ALPHA       |      BETA        | COEFFICIENT
------------------|------------------|------------
 1111100000000000 | 1111100000000000 |   0.8952636
 1111001000000000 | 1111001000000000 |  -0.1811999
 1110110000000000 | 1110110000000000 |  -0.1811999
 1111001000000000 | 1110110000000000 |   0.1002762
 1110110000000000 | 1111001000000000 |   0.1002762
 1111010000000000 | 1110101000000000 |   0.0666737
 1110101000000000 | 1111010000000000 |   0.0666737
 1110011000000000 | 1110011000000000 |   0.0662196
 1011110000000000 | 1011110000000000 |  -0.0509472
 1011101000000000 | 1011101000000000 |  -0.0509472
 ..... DONE WITH DETERMINANT CI COMPUTATION .....
 CPU     0: STEP CPU TIME=    61.14 TOTAL CPU TIME=       61.2 (    1.0 MIN)
 TOTAL WALL CLOCK TIME=       79.9 SECONDS, CPU UTILIZATION IS  76.55%

     ---------------------------
     ONE PARTICLE DENSITY MATRIX
     ---------------------------

 DENSITY MATRIX WILL BE SAVED FOR   1-TH STATE WITH S= 0.00

 CI EIGENSTATE   1 TOTAL ENERGY =     -109.0397750938

          NATURAL ORBITALS IN ATOMIC ORBITAL BASIS
          ----------------------------------------

                      1          2          3          4          5
                    2.0000     2.0000     1.9832     1.9695     1.9401
                     A1         A1         A1         A1         A1  
    1  N  1  S    0.706794   0.706907  -0.169379  -0.169868  -0.008464
    2  N  1  S    0.000518   0.000022   0.371879   0.397139   0.045898
    3  N  1  S    0.000886   0.001679   0.330736   0.440217  -0.151417
    4  N  1  X    0.000000   0.000000   0.000000   0.000000   0.000000
    5  N  1  Y    0.000000   0.000000   0.000000   0.000000   0.000000
    6  N  1  Z    0.001399   0.001112  -0.023336  -0.140318   0.557983
    7  N  1  X    0.000000   0.000000   0.000000   0.000000   0.000000
    8  N  1  Y    0.000000   0.000000   0.000000   0.000000   0.000000
    9  N  1  Z   -0.000616   0.000099  -0.052005  -0.027339   0.143798
   10  N  2  S    0.706794  -0.706907  -0.169379   0.169868  -0.008464
   11  N  2  S    0.000518  -0.000022   0.371879  -0.397139   0.045898
   12  N  2  S    0.000886  -0.001679   0.330736  -0.440217  -0.151417
   13  N  2  X    0.000000   0.000000   0.000000   0.000000   0.000000
   14  N  2  Y    0.000000   0.000000   0.000000   0.000000   0.000000
   15  N  2  Z   -0.001399   0.001112   0.023336  -0.140318  -0.557983
   16  N  2  X    0.000000   0.000000   0.000000   0.000000   0.000000
   17  N  2  Y    0.000000   0.000000   0.000000   0.000000   0.000000
   18  N  2  Z    0.000616   0.000099   0.052005  -0.027339  -0.143798

                      6          7          8          9         10
                    1.8383     1.8383     0.1628     0.1628     0.0578
                     B1         B2         B2         B1         A1  
    1  N  1  S    0.000000   0.000000   0.000000   0.000000  -0.079556
    2  N  1  S    0.000000   0.000000   0.000000   0.000000   0.258071
    3  N  1  S    0.000000   0.000000   0.000000   0.000000   0.326573
    4  N  1  X    0.508878   0.000000   0.000000   0.685506   0.000000
    5  N  1  Y    0.000000   0.508878   0.685506   0.000000   0.000000
    6  N  1  Z    0.000000   0.000000   0.000000   0.000000   0.844707
    7  N  1  X    0.204672   0.000000   0.000000   0.140631   0.000000
    8  N  1  Y    0.000000   0.204672   0.140631   0.000000   0.000000
    9  N  1  Z    0.000000   0.000000   0.000000   0.000000   0.111492
   10  N  2  S    0.000000   0.000000   0.000000   0.000000   0.079556
   11  N  2  S    0.000000   0.000000   0.000000   0.000000  -0.258071
   12  N  2  S    0.000000   0.000000   0.000000   0.000000  -0.326573
   13  N  2  X    0.508878   0.000000   0.000000  -0.685506   0.000000
   14  N  2  Y    0.000000   0.508878  -0.685506   0.000000   0.000000
   15  N  2  Z    0.000000   0.000000   0.000000   0.000000   0.844707
   16  N  2  X    0.204672   0.000000   0.000000  -0.140631   0.000000
   17  N  2  Y    0.000000   0.204672  -0.140631   0.000000   0.000000
   18  N  2  Z    0.000000   0.000000   0.000000   0.000000   0.111492

                     11         12         13         14         15
                    0.0128     0.0093     0.0081     0.0081     0.0042
                     A1         A1         B1         B2         A1  
    1  N  1  S   -0.085321  -0.077653   0.000000   0.000000   0.031066
    2  N  1  S    0.993402   0.944715   0.000000   0.000000  -0.601408
    3  N  1  S   -0.973003  -0.978294   0.000000   0.000000   0.245338
    4  N  1  X    0.000000   0.000000  -0.649421   0.000000   0.000000
    5  N  1  Y    0.000000   0.000000   0.000000  -0.649421   0.000000
    6  N  1  Z   -0.285882  -0.329067   0.000000   0.000000  -0.480994
    7  N  1  X    0.000000   0.000000   0.656526   0.000000   0.000000
    8  N  1  Y    0.000000   0.000000   0.000000   0.656526   0.000000
    9  N  1  Z    0.436250   0.369600   0.000000   0.000000   0.851243
   10  N  2  S   -0.085321   0.077653   0.000000   0.000000   0.031066
   11  N  2  S    0.993402  -0.944715   0.000000   0.000000  -0.601408
   12  N  2  S   -0.973003   0.978294   0.000000   0.000000   0.245338
   13  N  2  X    0.000000   0.000000  -0.649421   0.000000   0.000000
   14  N  2  Y    0.000000   0.000000   0.000000  -0.649421   0.000000
   15  N  2  Z    0.285882  -0.329067   0.000000   0.000000   0.480994
   16  N  2  X    0.000000   0.000000   0.656526   0.000000   0.000000
   17  N  2  Y    0.000000   0.000000   0.000000   0.656526   0.000000
   18  N  2  Z   -0.436250   0.369600   0.000000   0.000000  -0.851243

                     16         17         18
                    0.0019     0.0019     0.0008
                     B2         B1         A1  
    1  N  1  S    0.000000   0.000000   0.009279
    2  N  1  S    0.000000   0.000000   1.089363
    3  N  1  S    0.000000   0.000000  -3.676546
    4  N  1  X    0.000000  -0.506346   0.000000
    5  N  1  Y   -0.506346   0.000000   0.000000
    6  N  1  Z    0.000000   0.000000   0.096837
    7  N  1  X    0.000000   1.222226   0.000000
    8  N  1  Y    1.222226   0.000000   0.000000
    9  N  1  Z    0.000000   0.000000  -2.143875
   10  N  2  S    0.000000   0.000000  -0.009279
   11  N  2  S    0.000000   0.000000  -1.089363
   12  N  2  S    0.000000   0.000000   3.676546
   13  N  2  X    0.000000   0.506346   0.000000
   14  N  2  Y    0.506346   0.000000   0.000000
   15  N  2  Z    0.000000   0.000000   0.096837
   16  N  2  X    0.000000  -1.222226   0.000000
   17  N  2  Y   -1.222226   0.000000   0.000000
   18  N  2  Z    0.000000   0.000000  -2.143875
 ..... DONE WITH ONE PARTICLE DENSITY MATRIX .....
 CPU     0: STEP CPU TIME=     1.00 TOTAL CPU TIME=       62.2 (    1.0 MIN)
 TOTAL WALL CLOCK TIME=       81.3 SECONDS, CPU UTILIZATION IS  76.48%

     --------------------------------------------------------
     ALDET CI PROPERTIES...FOR THE WAVEFUNCTION OF STATE    1
               USING THE EXPECTATION VALUE DENSITY
     --------------------------------------------------------

          -----------------
          ENERGY COMPONENTS
          -----------------

         WAVEFUNCTION NORMALIZATION =       1.0000000000

                ONE ELECTRON ENERGY =    -183.9922313570
                TWO ELECTRON ENERGY =      56.4312525398
           NUCLEAR REPULSION ENERGY =      18.5212037234
                                      ------------------
                       TOTAL ENERGY =    -109.0397750938

 ELECTRON-ELECTRON POTENTIAL ENERGY =      56.4312525398
  NUCLEUS-ELECTRON POTENTIAL ENERGY =    -292.3164007424
   NUCLEUS-NUCLEUS POTENTIAL ENERGY =      18.5212037234
                                      ------------------
             TOTAL POTENTIAL ENERGY =    -217.3639444792
               TOTAL KINETIC ENERGY =     108.3241693854
                 VIRIAL RATIO (V/T) =       2.0066061500

          ---------------------------------------
          MULLIKEN AND LOWDIN POPULATION ANALYSES
          ---------------------------------------

               ----- POPULATIONS IN EACH AO -----
                             MULLIKEN      LOWDIN
              1  N  1  S      1.99997     1.99487
              2  N  1  S      0.97754     0.92319
              3  N  1  S      0.92599     0.80180
              4  N  1  X      0.73380     0.67250
              5  N  1  Y      0.73380     0.67250
              6  N  1  Z      0.95080     0.89994
              7  N  1  X      0.27177     0.33308
              8  N  1  Y      0.27177     0.33308
              9  N  1  Z      0.13455     0.36905
             10  N  2  S      1.99997     1.99487
             11  N  2  S      0.97754     0.92319
             12  N  2  S      0.92599     0.80180
             13  N  2  X      0.73380     0.67250
             14  N  2  Y      0.73380     0.67250
             15  N  2  Z      0.95080     0.89994
             16  N  2  X      0.27177     0.33308
             17  N  2  Y      0.27177     0.33308
             18  N  2  Z      0.13455     0.36905

          ----- MULLIKEN ATOMIC OVERLAP POPULATIONS -----
          (OFF-DIAGONAL ELEMENTS NEED TO BE MULTIPLIED BY 2)

             1           2

    1    6.6971245
    2    0.3028755   6.6971245

          TOTAL MULLIKEN AND LOWDIN ATOMIC POPULATIONS
       ATOM         MULL.POP.    CHARGE          LOW.POP.     CHARGE
    1 N             7.000000    0.000000         7.000000    0.000000
    2 N             7.000000    0.000000         7.000000    0.000000

          ---------------------
          ELECTROSTATIC MOMENTS
          ---------------------

 POINT   1           X           Y           Z (BOHR)    CHARGE
                 0.000000    0.000000    1.322808        0.00 (A.U.)
         DX          DY          DZ         /D/  (DEBYE)
     0.000000    0.000000    0.000000    0.000000
 ...... END OF PROPERTY EVALUATION ......
 CPU     0: STEP CPU TIME=     0.00 TOTAL CPU TIME=       62.2 (    1.0 MIN)
 TOTAL WALL CLOCK TIME=       81.4 SECONDS, CPU UTILIZATION IS  76.43%
             119866889  WORDS OF DYNAMIC MEMORY USED
 EXECUTION OF GAMESS TERMINATED NORMALLY Thu Jan 17 17:47:22 2019
 DDI: 305760 bytes (0.3 MB / 0 MWords) used by master data server.

 ----------------------------------------
 CPU timing information for all processes
 ========================================
 0: 57.528 + 4.804 = 62.332
 1: 58.568 + 5.260 = 63.828
 2: 59.56 + 5.88 = 64.144
 3: 58.768 + 5.112 = 63.880
 4: 57.800 + 5.668 = 63.468
 5: 58.64 + 4.624 = 62.688
 6: 58.288 + 4.620 = 62.908
 7: 57.712 + 4.764 = 62.476
 8: 58.832 + 3.604 = 62.436
 9: 58.736 + 4.624 = 63.360
 10: 57.852 + 4.596 = 62.448
 11: 58.164 + 4.532 = 62.696
 12: 0.272 + 2.104 = 2.376
 13: 0.08 + 0.00 = 0.08
 14: 0.08 + 0.00 = 0.08
 15: 0.04 + 0.04 = 0.08
 16: 0.08 + 0.00 = 0.08
 17: 0.04 + 0.04 = 0.08
 18: 0.00 + 0.04 = 0.04
 19: 0.04 + 0.04 = 0.08
 20: 0.04 + 0.00 = 0.04
 21: 0.04 + 0.00 = 0.04
 22: 0.00 + 0.04 = 0.04
 23: 0.08 + 0.00 = 0.08
 ----------------------------------------
 ddikick.x: exited gracefully.
unset echo
----- accounting info -----
Files used on the master node localhost were:
-rw-rw-r-- 1 maho maho    13429 Jan 17 17:47 ./N2.SV/1.4/N2.SV.fullCI.1.4.gamess.dat
-rw------- 1 maho maho     1813 Jan 17 17:46 ./N2.SV/1.4/N2.SV.fullCI.1.4.gamess.F05
-rw-rw-r-- 1 maho maho   180016 Jan 17 17:46 ./N2.SV/1.4/N2.SV.fullCI.1.4.gamess.F08
-rw-rw-r-- 1 maho maho     1376 Jan 17 17:46 ./N2.SV/1.4/N2.SV.fullCI.1.4.gamess.F09
-rw-rw-r-- 1 maho maho  1865040 Jan 17 17:47 ./N2.SV/1.4/N2.SV.fullCI.1.4.gamess.F10
-rw-rw-r-- 1 maho maho 38216480 Jan 17 17:47 ./N2.SV/1.4/N2.SV.fullCI.1.4.gamess.F12
-rw------- 1 maho maho     1813 Jan 17 17:46 ./N2.SV/1.4/N2.SV.fullCI.1.4.gamess.inp
-rw-rw-r-- 1 maho maho    46293 Jan 17 17:47 ./N2.SV/1.4/N2.SV.fullCI.1.4.gamess.log
ls: No match.
ls: No match.
ls: No match.
Thu Jan 17 17:47:25 JST 2019
0.0u 0.0s 1:24.79 0.0% 0+0k 0+8io 0pf+0w
