----- GAMESS execution script 'rungms' -----
This job is running on host bach.ad64.riken.go.jp
under operating system Darwin at 2019年 1月17日 木曜日 17時47分13秒 JST
Available scratch disk space (Kbyte units) at beginning of the job is
Filesystem   1024-blocks       Used Available Capacity iused      ifree %iused  Mounted on
/dev/disk2s2  1953178672 1144748868 808429804    59%  984241 4293983038    0%   /Volumes/Users
GAMESS temporary binary files will be written to ./
GAMESS supplementary output files will be written to ./
Copying input file LiH.631g/2.2/LiH.631g.fullCI.2.2.gamess.inp to your run's scratch directory...
cp LiH.631g/2.2/LiH.631g.fullCI.2.2.gamess.inp .//LiH.631g/2.2/LiH.631g.fullCI.2.2.gamess.F05
unset echo
/Volumes/Users/maho/bin/gamess//ddikick.x /Volumes/Users/maho/bin/gamess//gamess.00.x LiH.631g/2.2/LiH.631g.fullCI.2.2.gamess -ddi 1 1 bach.ad64.riken.go.jp -scr ./

 Distributed Data Interface kickoff program.
 Initiating 1 compute processes on 1 nodes to run the following command:
 /Volumes/Users/maho/bin/gamess//gamess.00.x LiH.631g/2.2/LiH.631g.fullCI.2.2.gamess 

          ******************************************************
          *         GAMESS VERSION = 18 AUG 2016 (R1)          *
          *             FROM IOWA STATE UNIVERSITY             *
          * M.W.SCHMIDT, K.K.BALDRIDGE, J.A.BOATZ, S.T.ELBERT, *
          *   M.S.GORDON, J.H.JENSEN, S.KOSEKI, N.MATSUNAGA,   *
          *          K.A.NGUYEN, S.J.SU, T.L.WINDUS,           *
          *       TOGETHER WITH M.DUPUIS, J.A.MONTGOMERY       *
          *         J.COMPUT.CHEM.  14, 1347-1363(1993)        *
          **************** 64 BIT APPLE VERSION ****************

  SINCE 1993, STUDENTS AND POSTDOCS WORKING AT IOWA STATE UNIVERSITY
  AND ALSO IN THEIR VARIOUS JOBS AFTER LEAVING ISU HAVE MADE IMPORTANT
  CONTRIBUTIONS TO THE CODE:
     IVANA ADAMOVIC, CHRISTINE AIKENS, YURI ALEXEEV, POOJA ARORA,
     ANDREY ASADCHEV, ROB BELL, PRADIPTA BANDYOPADHYAY, JONATHAN BENTZ,
     BRETT BODE, KURT BRORSEN, CALEB CARLIN, GALINA CHABAN, WEI CHEN,
     CHEOL HO CHOI, PAUL DAY, ALBERT DEFUSCO, NUWAN DESILVA, TIM DUDLEY,
     DMITRI FEDOROV, GRAHAM FLETCHER, MARK FREITAG, KURT GLAESEMANN,
     DAN KEMP, GRANT MERRILL, NORIYUKI MINEZAWA, JONATHAN MULLIN,
     TAKESHI NAGATA, SEAN NEDD, HEATHER NETZLOFF, BOSILJKA NJEGIC, RYAN OLSON,
     MIKE PAK, SPENCER PRUITT, LUKE ROSKOP, JIM SHOEMAKER, LYUDMILA SLIPCHENKO,
     TONY SMITH, SAROM SOK LEANG, JIE SONG, TETSUYA TAKETSUGU, SIMON WEBB,
     PENG XU, SOOHAENG YOO, FEDERICO ZAHARIEV

  ADDITIONAL CODE HAS BEEN PROVIDED BY COLLABORATORS IN OTHER GROUPS:
     IOWA STATE UNIVERSITY:
          JOE IVANIC, AARON WEST, LAIMUTIS BYTAUTAS, KLAUS RUEDENBERG
     UNIVERSITY OF TOKYO: KIMIHIKO HIRAO, TAKAHITO NAKAJIMA,
          TAKAO TSUNEDA, MUNEAKI KAMIYA, SUSUMU YANAGISAWA,
          KIYOSHI YAGI, MAHITO CHIBA, SEIKEN TOKURA, NAOAKI KAWAKAMI
     UNIVERSITY OF AARHUS: FRANK JENSEN
     UNIVERSITY OF IOWA: VISVALDAS KAIRYS, HUI LI
     NATIONAL INST. OF STANDARDS AND TECHNOLOGY: WALT STEVENS, DAVID GARMER
     UNIVERSITY OF PISA: BENEDETTA MENNUCCI, JACOPO TOMASI
     UNIVERSITY OF MEMPHIS: HENRY KURTZ, PRAKASHAN KORAMBATH
     UNIVERSITY OF ALBERTA: TOBY ZENG, MARIUSZ KLOBUKOWSKI
     UNIVERSITY OF NEW ENGLAND: MARK SPACKMAN
     MIE UNIVERSITY: HIROAKI UMEDA
     NAT. INST. OF ADVANCED INDUSTRIAL SCIENCE AND TECHNOLOGY: KAZUO KITAURA
     MICHIGAN STATE UNIVERSITY:
          KAROL KOWALSKI, MARTA WLOCH, JEFFREY GOUR, JESSE LUTZ,
          WEI LI, PIOTR PIECUCH
     UNIVERSITY OF SILESIA: MONIKA MUSIAL, STANISLAW KUCHARSKI
     FACULTES UNIVERSITAIRES NOTRE-DAME DE LA PAIX:
          OLIVIER QUINET, BENOIT CHAMPAGNE
     UNIVERSITY OF CALIFORNIA - SANTA BARBARA: BERNARD KIRTMAN
     INSTITUTE FOR MOLECULAR SCIENCE:
          KAZUYA ISHIMURA, MICHIO KATOUDA, AND SHIGERU NAGASE
     UNIVERSITY OF NOTRE DAME: ANNA POMOGAEVA, DAN CHIPMAN
     KYUSHU UNIVERSITY:
          HARUYUKI NAKANO,
          FENG LONG GU, JACEK KORCHOWIEC, MARCIN MAKOWSKI, AND YURIKO AOKI,
          HIROTOSHI MORI AND EISAKU MIYOSHI
     PENNSYLVANIA STATE UNIVERSITY:
          TZVETELIN IORDANOV, CHET SWALINA, JONATHAN SKONE,
          SHARON HAMMES-SCHIFFER
     WASEDA UNIVERSITY:
          MASATO KOBAYASHI, TOMOKO AKAMA, TSUGUKI TOUMA,
          TAKESHI YOSHIKAWA, YASUHIRO IKABATA, JUNJI SEINO,
          YUYA NAKAJIMA, HIROMI NAKAI
     NANJING UNIVERSITY: SHUHUA LI
     UNIVERSITY OF NEBRASKA:
          PEIFENG SU, DEJUN SI, NANDUN THELLAMUREGE, YALI WANG, HUI LI
     UNIVERSITY OF ZURICH: ROBERTO PEVERATI, KIM BALDRIDGE
     N. COPERNICUS UNIVERSITY AND JACKSON STATE UNIVERSITY:
          MARIA BARYSZ
     UNIVERSITY OF COPENHAGEN: Jimmy Kromann, CASPER STEINMANN
     TOKYO INSTITUTE OF TECHNOLOGY: HIROYA NAKATA
     NAGOYA UNIVERSITY: YOSHIO NISHIMOTO, STEPHAN IRLE
     MOSCOW STATE UNIVERSITY: VLADIMIR MIRONOV

 EXECUTION OF GAMESS BEGUN Thu Jan 17 17:47:13 2019

            ECHO OF THE FIRST FEW INPUT CARDS -
 INPUT CARD> $CONTRL SCFTYP=RHF CITYP=ALDET $END                                            
 INPUT CARD> $GUESS  GUESS=HUCKEL $END                                                      
 INPUT CARD> $BASIS GBASIS=N31 NGAUSS=6 NDFUNC=1 NPFUNC=1 $END                              
 INPUT CARD> $CIDET SZ=0 GROUP=C2V NCORE=0 NACT=20 NELS=4 $END                              
 INPUT CARD> $DATA                                                                          
 INPUT CARD>LiH...HF...6-31G* basis                                                         
 INPUT CARD>Cnv   2                                                                         
 INPUT CARD>                                                                                
 INPUT CARD>Li    3.0    0.0      0.0     0.0                                               
 INPUT CARD>H     1.0    0.0      0.0     2.2                                               
 INPUT CARD> $END                                                                           
    1000000 WORDS OF MEMORY AVAILABLE

     BASIS OPTIONS
     -------------
     GBASIS=N31          IGAUSS=       6      POLAR=POPN31  
     NDFUNC=       1     NFFUNC=       0     DIFFSP=       F
     NPFUNC=       1      DIFFS=       F     BASNAM=        


     RUN TITLE
     ---------
 LiH...HF...6-31G* basis                                                         

 THE POINT GROUP OF THE MOLECULE IS CNV     
 THE ORDER OF THE PRINCIPAL AXIS IS     2

 ATOM      ATOMIC                      COORDINATES (BOHR)
           CHARGE         X                   Y                   Z
 LI          3.0     0.0000000000        0.0000000000        0.0000000000
 H           1.0     0.0000000000        0.0000000000        4.1573971730

          INTERNUCLEAR DISTANCES (ANGS.)
          ------------------------------

                1 LI         2 H     

   1 LI      0.0000000    2.2000000 *
   2 H       2.2000000 *  0.0000000  

  * ... LESS THAN  3.000


     ATOMIC BASIS SET
     ----------------
 THE CONTRACTED PRIMITIVE FUNCTIONS HAVE BEEN UNNORMALIZED
 THE CONTRACTED BASIS FUNCTIONS ARE NOW NORMALIZED TO UNITY

  SHELL TYPE  PRIMITIVE        EXPONENT          CONTRACTION COEFFICIENT(S)

 LI        

      1   S       1           642.4189150    0.002142607810
      1   S       2            96.7985153    0.016208871501
      1   S       3            22.0911212    0.077315572504
      1   S       4             6.2010702    0.245786052013
      1   S       5             1.9351177    0.470189004025
      1   S       6             0.6367358    0.345470845019

      2   L       7             2.3249184   -0.035091745735    0.008941508043
      2   L       8             0.6324304   -0.191232843103    0.141009464046
      2   L       9             0.0790534    1.083987794916    0.945363695309

      3   L      10             0.0359620    1.000000000000    1.000000000000

      4   D      11             0.2000000    1.000000000000

 H         

      5   S      12            18.7311370    0.033494604338
      5   S      13             2.8253944    0.234726953484
      5   S      14             0.6401217    0.813757326146

      6   S      15             0.1612778    1.000000000000

      7   P      16             1.1000000    1.000000000000

 TOTAL NUMBER OF BASIS SET SHELLS             =    7
 NUMBER OF CARTESIAN GAUSSIAN BASIS FUNCTIONS =   20
 NUMBER OF ELECTRONS                          =    4
 CHARGE OF MOLECULE                           =    0
 SPIN MULTIPLICITY                            =    1
 NUMBER OF OCCUPIED ORBITALS (ALPHA)          =    2
 NUMBER OF OCCUPIED ORBITALS (BETA )          =    2
 TOTAL NUMBER OF ATOMS                        =    2
 THE NUCLEAR REPULSION ENERGY IS        0.7216053399

 THIS MOLECULE IS RECOGNIZED AS BEING LINEAR,
 ORBITAL LZ DEGENERACY TOLERANCE ETOLLZ= 1.00E-06

     $CONTRL OPTIONS
     ---------------
 SCFTYP=RHF          RUNTYP=ENERGY       EXETYP=RUN     
 MPLEVL=       0     CITYP =ALDET        CCTYP =NONE         VBTYP =NONE    
 DFTTYP=NONE         TDDFT =NONE    
 MULT  =       1     ICHARG=       0     NZVAR =       0     COORD =UNIQUE  
 PP    =NONE         RELWFN=NONE         LOCAL =NONE         NUMGRD=       F
 ISPHER=      -1     NOSYM =       0     MAXIT =      30     UNITS =ANGS    
 PLTORB=       F     MOLPLT=       F     AIMPAC=       F     FRIEND=        
 NPRINT=       7     IREST =       0     GEOM  =INPUT   
 NORMF =       0     NORMP =       0     ITOL  =      20     ICUT  =       9
 INTTYP=BEST         GRDTYP=BEST         QMTTOL= 1.0E-06

     $SYSTEM OPTIONS
     ---------------
  REPLICATED MEMORY=     1000000 WORDS (ON EVERY NODE).
 DISTRIBUTED MEMDDI=           0 MILLION WORDS IN AGGREGATE,
 MEMDDI DISTRIBUTED OVER   1 PROCESSORS IS           0 WORDS/PROCESSOR.
 TOTAL MEMORY REQUESTED ON EACH PROCESSOR=     1000000 WORDS.
 TIMLIM=      525600.00 MINUTES, OR     365.0 DAYS.
 PARALL= F  BALTYP=  DLB     KDIAG=    0  COREFL= F
 MXSEQ2=     300 MXSEQ3=     150  mem10=         0

          ----------------
          PROPERTIES INPUT
          ----------------

     MOMENTS            FIELD           POTENTIAL          DENSITY
 IEMOM =       1   IEFLD =       0   IEPOT =       0   IEDEN =       0
 WHERE =COMASS     WHERE =NUCLEI     WHERE =NUCLEI     WHERE =NUCLEI  
 OUTPUT=BOTH       OUTPUT=BOTH       OUTPUT=BOTH       OUTPUT=BOTH    
 IEMINT=       0   IEFINT=       0                     IEDINT=       0
                                                       MORB  =       0
          EXTRAPOLATION IN EFFECT
          SOSCF IN EFFECT
 ORBITAL PRINTING OPTION: NPREO=     1    20     2     1

     -------------------------------
     INTEGRAL TRANSFORMATION OPTIONS
     -------------------------------
     NWORD  =            0
     CUTOFF = 1.0E-09     MPTRAN =       0
     DIRTRF =       F     AOINTS =DUP     

          ----------------------
          INTEGRAL INPUT OPTIONS
          ----------------------
 NOPK  =       1 NORDER=       0 SCHWRZ=       F

     ------------------------------------------
     THE POINT GROUP IS CNV, NAXIS= 2, ORDER= 4
     ------------------------------------------

     DIMENSIONS OF THE SYMMETRY SUBSPACES ARE
 A1  =   11     A2  =    1     B1  =    4     B2  =    4

 ..... DONE SETTING UP THE RUN .....
 STEP CPU TIME =     0.00 TOTAL CPU TIME =        0.0 (    0.0 MIN)
 TOTAL WALL CLOCK TIME=        0.0 SECONDS, CPU UTILIZATION IS   0.00%

          ********************
          1 ELECTRON INTEGRALS
          ********************
 ...... END OF ONE-ELECTRON INTEGRALS ......
 STEP CPU TIME =     0.00 TOTAL CPU TIME =        0.0 (    0.0 MIN)
 TOTAL WALL CLOCK TIME=        0.0 SECONDS, CPU UTILIZATION IS   0.00%

          -------------
          GUESS OPTIONS
          -------------
          GUESS =HUCKEL            NORB  =       0          NORDER=       0
          MIX   =       F          PRTMO =       F          PUNMO =       F
          TOLZ  = 1.0E-08          TOLE  = 1.0E-05
          SYMDEN=       F          PURIFY=       F

 INITIAL GUESS ORBITALS GENERATED BY HUCKEL   ROUTINE.
 HUCKEL GUESS REQUIRES      4469 WORDS.

 SYMMETRIES FOR INITIAL GUESS ORBITALS FOLLOW.   BOTH SET(S).
     2 ORBITALS ARE OCCUPIED (    1 CORE ORBITALS).
     2=A1       3=A1       4=A1       5=A1       6=A1       7=A1       8=A1  
     9=A1      10=A1      11=A1      12=A2  
 ...... END OF INITIAL ORBITAL SELECTION ......
 STEP CPU TIME =     0.00 TOTAL CPU TIME =        0.0 (    0.0 MIN)
 TOTAL WALL CLOCK TIME=        0.0 SECONDS, CPU UTILIZATION IS   0.00%

                    ----------------------
                    AO INTEGRAL TECHNOLOGY
                    ----------------------
     S,P,L SHELL ROTATED AXIS INTEGRALS, REPROGRAMMED BY
        KAZUYA ISHIMURA (IMS) AND JOSE SIERRA (SYNSTAR).
     S,P,D,L SHELL ROTATED AXIS INTEGRALS PROGRAMMED BY
        KAZUYA ISHIMURA (INSTITUTE FOR MOLECULAR SCIENCE).
     S,P,D,F,G SHELL TO TOTAL QUARTET ANGULAR MOMENTUM SUM 5,
        ERIC PROGRAM BY GRAHAM FLETCHER (ELORET AND NASA ADVANCED
        SUPERCOMPUTING DIVISION, AMES RESEARCH CENTER).
     S,P,D,F,G,L SHELL GENERAL RYS QUADRATURE PROGRAMMED BY
        MICHEL DUPUIS (PACIFIC NORTHWEST NATIONAL LABORATORY).

          --------------------
          2 ELECTRON INTEGRALS
          --------------------

 THE -PK- OPTION IS OFF, THE INTEGRALS ARE NOT IN SUPERMATRIX FORM.
 STORING   15000 INTEGRALS/RECORD ON DISK, USING 12 BYTES/INTEGRAL.
 TWO ELECTRON INTEGRAL EVALUATION REQUIRES   90424 WORDS OF MEMORY.
 II,JST,KST,LST =  1  1  1  1 NREC =         1 INTLOC =    1
 II,JST,KST,LST =  2  1  1  1 NREC =         1 INTLOC =    2
 II,JST,KST,LST =  3  1  1  1 NREC =         1 INTLOC =   34
 II,JST,KST,LST =  4  1  1  1 NREC =         1 INTLOC =  214
 II,JST,KST,LST =  5  1  1  1 NREC =         1 INTLOC = 1189
 II,JST,KST,LST =  6  1  1  1 NREC =         1 INTLOC = 1867
 II,JST,KST,LST =  7  1  1  1 NREC =         1 INTLOC = 2713
 TOTAL NUMBER OF NONZERO TWO-ELECTRON INTEGRALS =                5596
          1 INTEGRAL RECORDS WERE STORED ON DISK FILE  8.
  ...... END OF TWO-ELECTRON INTEGRALS .....
 STEP CPU TIME =     0.02 TOTAL CPU TIME =        0.0 (    0.0 MIN)
 TOTAL WALL CLOCK TIME=        0.0 SECONDS, CPU UTILIZATION IS  66.67%

          --------------------------
                 RHF SCF CALCULATION
          --------------------------

     NUCLEAR ENERGY =         0.7216053399
     MAXIT =   30     NPUNCH=    2
     EXTRAP=T  DAMP=F  SHIFT=F  RSTRCT=F  DIIS=F  DEM=F  SOSCF=T
     DENSITY MATRIX CONV=  1.00E-06
     SOSCF WILL OPTIMIZE      36 ORBITAL ROTATIONS, SOGTOL=   0.250
     MEMORY REQUIRED FOR RHF ITERS=     33224 WORDS.

 ITER EX DEM     TOTAL ENERGY        E CHANGE  DENSITY CHANGE     ORB. GRAD
   1  0  0       -7.7950512702    -7.7950512702   0.449190555   0.000000000
          ---------------START SECOND ORDER SCF---------------
   2  1  0       -7.9497039623    -0.1546526922   0.104040828   0.025864725
   3  2  0       -7.9584122847    -0.0087083224   0.020378232   0.009782429
   4  3  0       -7.9588183616    -0.0004060768   0.002024105   0.000374657
   5  4  0       -7.9588201065    -0.0000017449   0.000254803   0.000060583
   6  5  0       -7.9588201449    -0.0000000384   0.000028095   0.000008167
   7  6  0       -7.9588201452    -0.0000000003   0.000005540   0.000001250
   8  7  0       -7.9588201452    -0.0000000000   0.000000129   0.000000030
   9  8  0       -7.9588201452    -0.0000000000   0.000000000   0.000000004

          -----------------
          DENSITY CONVERGED
          -----------------
     TIME TO FORM FOCK OPERATORS=       0.0 SECONDS (       0.0 SEC/ITER)
     TIME TO SOLVE SCF EQUATIONS=       0.0 SECONDS (       0.0 SEC/ITER)

 FINAL RHF ENERGY IS       -7.9588201452 AFTER   9 ITERATIONS

 LZ VALUE ANALYSIS FOR THE MOS
 ----------------------------------------
 MO     1 (    1) HAS LZ(WEIGHT)= 0.00(100.0%) 
 MO     2 (    2) HAS LZ(WEIGHT)= 0.00(100.0%) 
 MO     3 (    3) HAS LZ(WEIGHT)= 0.00(100.0%) 
 MO     4 (    4) HAS LZ(WEIGHT)=-1.00( 50.0%)  1.00( 50.0%) 
 MO     5 (    4) HAS LZ(WEIGHT)=-1.00( 50.0%)  1.00( 50.0%) 
 MO     6 (    5) HAS LZ(WEIGHT)= 0.00(100.0%) 
 MO     7 (    6) HAS LZ(WEIGHT)= 0.00(100.0%) 
 MO     8 (    7) HAS LZ(WEIGHT)=-1.00( 50.0%)  1.00( 50.0%) 
 MO     9 (    7) HAS LZ(WEIGHT)=-1.00( 50.0%)  1.00( 50.0%) 
 MO    10 (    8) HAS LZ(WEIGHT)= 0.00(100.0%) 
 MO    11 (    9) HAS LZ(WEIGHT)=-2.00( 50.0%)  2.00( 50.0%) 
 MO    12 (    9) HAS LZ(WEIGHT)=-2.00( 50.0%)  2.00( 50.0%) 
 MO    13 (   10) HAS LZ(WEIGHT)=-1.00( 50.0%)  1.00( 50.0%) 
 MO    14 (   10) HAS LZ(WEIGHT)=-1.00( 50.0%)  1.00( 50.0%) 
 MO    15 (   11) HAS LZ(WEIGHT)= 0.00(100.0%) 
 MO    16 (   12) HAS LZ(WEIGHT)= 0.00(100.0%) 
 MO    17 (   13) HAS LZ(WEIGHT)= 0.00(100.0%) 
 MO    18 (   14) HAS LZ(WEIGHT)=-1.00( 50.0%)  1.00( 50.0%) 
 MO    19 (   14) HAS LZ(WEIGHT)=-1.00( 50.0%)  1.00( 50.0%) 
 MO    20 (   15) HAS LZ(WEIGHT)= 0.00(100.0%) 

          ------------
          EIGENVECTORS
          ------------

                      1          2          3          4          5
                   -2.4975    -0.2663    -0.0055     0.0518     0.0518
                     A1         A1         A1         B1         B2  
    1  LI 1  S    0.998722  -0.095099  -0.148769  -0.000000  -0.000000
    2  LI 1  S   -0.011044   0.099812  -0.257963  -0.000000  -0.000000
    3  LI 1  X    0.000000  -0.000000  -0.000000   0.069642  -0.000000
    4  LI 1  Y    0.000000  -0.000000  -0.000000  -0.000000   0.069642
    5  LI 1  Z   -0.007550   0.157425  -0.174139  -0.000000  -0.000000
    6  LI 1  S    0.000666   0.269537   0.887911  -0.000000  -0.000000
    7  LI 1  X    0.000000  -0.000000  -0.000000   0.942576  -0.000000
    8  LI 1  Y    0.000000  -0.000000  -0.000000  -0.000000   0.942576
    9  LI 1  Z    0.004259   0.086795  -0.485565  -0.000000  -0.000000
   10  LI 1 XX    0.009041   0.006123   0.060653  -0.000000  -0.000000
   11  LI 1 YY    0.009041   0.006123   0.060653  -0.000000  -0.000000
   12  LI 1 ZZ    0.008005   0.041394   0.070132  -0.000000  -0.000000
   13  LI 1 XY    0.000000  -0.000000  -0.000000  -0.000000  -0.000000
   14  LI 1 XZ    0.000000  -0.000000  -0.000000  -0.034059  -0.000000
   15  LI 1 YZ    0.000000  -0.000000  -0.000000  -0.000000  -0.034059
   16  H  2  S    0.000236   0.263218  -0.063259  -0.000000  -0.000000
   17  H  2  S    0.002230   0.465723  -0.076364  -0.000000  -0.000000
   18  H  2  X    0.000000  -0.000000  -0.000000   0.003020  -0.000000
   19  H  2  Y    0.000000  -0.000000  -0.000000  -0.000000   0.003020
   20  H  2  Z   -0.000302  -0.004802  -0.000421  -0.000000  -0.000000

                      6          7          8          9         10
                    0.1467     0.1869     0.2063     0.2063     0.2546
                     A1         A1         B1         B2         A1  
    1  LI 1  S   -0.072499   0.092788   0.000000   0.000000  -0.007062
    2  LI 1  S    0.453254   2.832292   0.000000   0.000000   1.554093
    3  LI 1  X    0.000000  -0.000000   1.667810   0.000000  -0.000000
    4  LI 1  Y    0.000000  -0.000000   0.000000   1.667810  -0.000000
    5  LI 1  Z   -0.713512  -0.690912   0.000000   0.000000   1.369820
    6  LI 1  S    0.199716  -2.399414   0.000000   0.000000  -0.853995
    7  LI 1  X    0.000000  -0.000000  -1.381904   0.000000  -0.000000
    8  LI 1  Y    0.000000  -0.000000   0.000000  -1.381904  -0.000000
    9  LI 1  Z    1.437689   0.151822   0.000000   0.000000  -0.763937
   10  LI 1 XX   -0.009452  -0.302185   0.000000   0.000000  -0.051334
   11  LI 1 YY   -0.009452  -0.302185   0.000000   0.000000  -0.051334
   12  LI 1 ZZ   -0.024861  -0.228914   0.000000   0.000000  -0.259279
   13  LI 1 XY    0.000000  -0.000000   0.000000   0.000000  -0.000000
   14  LI 1 XZ    0.000000  -0.000000  -0.076214   0.000000  -0.000000
   15  LI 1 YZ    0.000000  -0.000000   0.000000  -0.076214  -0.000000
   16  H  2  S   -0.097324   0.045495   0.000000   0.000000  -0.084329
   17  H  2  S   -0.688967   0.413273   0.000000   0.000000  -0.556031
   18  H  2  X    0.000000  -0.000000   0.001606   0.000000  -0.000000
   19  H  2  Y    0.000000  -0.000000   0.000000   0.001606  -0.000000
   20  H  2  Z    0.000322  -0.004380   0.000000   0.000000  -0.014323

                     11         12         13         14         15
                    0.5569     0.5569     0.5638     0.5638     0.6648
                     A2         A1         B1         B2         A1  
    1  LI 1  S    0.000000  -0.000000  -0.000000  -0.000000  -0.030156
    2  LI 1  S    0.000000  -0.000000  -0.000000  -0.000000  -0.247481
    3  LI 1  X    0.000000  -0.000000   0.128590  -0.000000  -0.000000
    4  LI 1  Y    0.000000  -0.000000  -0.000000   0.128590  -0.000000
    5  LI 1  Z    0.000000  -0.000000  -0.000000  -0.000000   0.459128
    6  LI 1  S    0.000000  -0.000000  -0.000000  -0.000000   0.378799
    7  LI 1  X    0.000000  -0.000000  -0.073659  -0.000000  -0.000000
    8  LI 1  Y    0.000000  -0.000000  -0.000000  -0.073659  -0.000000
    9  LI 1  Z    0.000000  -0.000000  -0.000000  -0.000000   0.093232
   10  LI 1 XX    0.000000   0.866025  -0.000000  -0.000000  -0.445640
   11  LI 1 YY    0.000000  -0.866025  -0.000000  -0.000000  -0.445640
   12  LI 1 ZZ    0.000000  -0.000000  -0.000000  -0.000000   1.230559
   13  LI 1 XY    1.000000  -0.000000  -0.000000  -0.000000  -0.000000
   14  LI 1 XZ    0.000000  -0.000000   0.994407  -0.000000  -0.000000
   15  LI 1 YZ    0.000000  -0.000000  -0.000000   0.994407  -0.000000
   16  H  2  S    0.000000  -0.000000  -0.000000  -0.000000   0.004693
   17  H  2  S    0.000000  -0.000000  -0.000000  -0.000000  -0.851245
   18  H  2  X    0.000000  -0.000000   0.024482  -0.000000  -0.000000
   19  H  2  Y    0.000000  -0.000000  -0.000000   0.024482  -0.000000
   20  H  2  Z    0.000000  -0.000000  -0.000000  -0.000000  -0.029997

                     16         17         18         19         20
                    1.1888     1.2861     2.4785     2.4785     2.6553
                     A1         A1         B2         B1         A1  
    1  LI 1  S    0.101772   0.036807  -0.000000  -0.000000  -0.020943
    2  LI 1  S    8.828711   3.320381  -0.000000  -0.000000  -0.670607
    3  LI 1  X    0.000000  -0.000000  -0.000000  -0.048254  -0.000000
    4  LI 1  Y    0.000000  -0.000000  -0.048254  -0.000000  -0.000000
    5  LI 1  Z    0.009504   0.191476  -0.000000  -0.000000   0.336279
    6  LI 1  S   -2.791924  -0.674370  -0.000000  -0.000000   0.260432
    7  LI 1  X    0.000000  -0.000000  -0.000000  -0.004866  -0.000000
    8  LI 1  Y    0.000000  -0.000000  -0.004866  -0.000000  -0.000000
    9  LI 1  Z   -0.062701   0.257949  -0.000000  -0.000000  -0.079948
   10  LI 1 XX   -2.963808  -1.153634  -0.000000  -0.000000   0.146979
   11  LI 1 YY   -2.963808  -1.153634  -0.000000  -0.000000   0.146979
   12  LI 1 ZZ   -2.886365  -0.989701  -0.000000  -0.000000   0.593543
   13  LI 1 XY    0.000000  -0.000000  -0.000000  -0.000000  -0.000000
   14  LI 1 XZ    0.000000  -0.000000  -0.000000  -0.099038  -0.000000
   15  LI 1 YZ    0.000000  -0.000000  -0.099038  -0.000000  -0.000000
   16  H  2  S   -0.459710   1.289898  -0.000000  -0.000000   0.108115
   17  H  2  S    0.363777  -1.490037  -0.000000  -0.000000  -0.392425
   18  H  2  X    0.000000  -0.000000  -0.000000   1.003613  -0.000000
   19  H  2  Y    0.000000  -0.000000   1.003613  -0.000000  -0.000000
   20  H  2  Z    0.019017  -0.029185  -0.000000  -0.000000   1.042563
 ...... END OF RHF CALCULATION ......
 STEP CPU TIME =     0.01 TOTAL CPU TIME =        0.0 (    0.0 MIN)
 TOTAL WALL CLOCK TIME=        0.0 SECONDS, CPU UTILIZATION IS  75.00%

     ----------------------------------------------------------------
     PROPERTY VALUES FOR THE RHF   SELF-CONSISTENT FIELD WAVEFUNCTION
     ----------------------------------------------------------------

          -----------------
          ENERGY COMPONENTS
          -----------------

         WAVEFUNCTION NORMALIZATION =       1.0000000000

                ONE ELECTRON ENERGY =     -11.8331861080
                TWO ELECTRON ENERGY =       3.1527606229
           NUCLEAR REPULSION ENERGY =       0.7216053399
                                      ------------------
                       TOTAL ENERGY =      -7.9588201452

 ELECTRON-ELECTRON POTENTIAL ENERGY =       3.1527606229
  NUCLEUS-ELECTRON POTENTIAL ENERGY =     -19.6865011568
   NUCLEUS-NUCLEUS POTENTIAL ENERGY =       0.7216053399
                                      ------------------
             TOTAL POTENTIAL ENERGY =     -15.8121351940
               TOTAL KINETIC ENERGY =       7.8533150488
                 VIRIAL RATIO (V/T) =       2.0134344663

  ...... PI ENERGY ANALYSIS ......

 ENERGY ANALYSIS:
            FOCK ENERGY=     -5.5276648601
          BARE H ENERGY=    -11.8331861080
     ELECTRONIC ENERGY =     -8.6804254840
         KINETIC ENERGY=      7.8533150488
          N-N REPULSION=      0.7216053399
           TOTAL ENERGY=     -7.9588201441
        SIGMA PART(1+2)=     -8.6804254840
               (K,V1,2)=      7.8533150488    -19.6865011568      3.1527606240
           PI PART(1+2)=      0.0000000000
               (K,V1,2)=      0.0000000000      0.0000000000      0.0000000000
  SIGMA SKELETON, ERROR=     -7.9588201441      0.0000000000
             MIXED PART= 0.00000E+00 0.00000E+00 0.00000E+00 0.00000E+00
 ...... END OF PI ENERGY ANALYSIS ......

          ---------------------------------------
          MULLIKEN AND LOWDIN POPULATION ANALYSES
          ---------------------------------------

               ----- POPULATIONS IN EACH AO -----
                             MULLIKEN      LOWDIN
              1  LI 1  S      1.99815     1.98128
              2  LI 1  S      0.11296     0.15096
              3  LI 1  X      0.00000     0.00000
              4  LI 1  Y      0.00000     0.00000
              5  LI 1  Z      0.17474     0.19050
              6  LI 1  S      0.32581     0.25453
              7  LI 1  X      0.00000     0.00000
              8  LI 1  Y      0.00000     0.00000
              9  LI 1  Z      0.08979     0.13886
             10  LI 1 XX      0.00575     0.02719
             11  LI 1 YY      0.00575     0.02719
             12  LI 1 ZZ      0.04771     0.12374
             13  LI 1 XY      0.00000     0.00000
             14  LI 1 XZ      0.00000     0.00000
             15  LI 1 YZ      0.00000     0.00000
             16  H  2  S      0.36606     0.38457
             17  H  2  S      0.87290     0.72099
             18  H  2  X      0.00000     0.00000
             19  H  2  Y      0.00000     0.00000
             20  H  2  Z      0.00038     0.00018

          ----- MULLIKEN ATOMIC OVERLAP POPULATIONS -----
          (OFF-DIAGONAL ELEMENTS NEED TO BE MULTIPLIED BY 2)

             1           2

    1    2.4165330
    2    0.3441274   0.8952122

          TOTAL MULLIKEN AND LOWDIN ATOMIC POPULATIONS
       ATOM         MULL.POP.    CHARGE          LOW.POP.     CHARGE
    1 LI            2.760660    0.239340         2.894262    0.105738
    2 H             1.239340   -0.239340         1.105738   -0.105738

          ---------------------
          ELECTROSTATIC MOMENTS
          ---------------------

 POINT   1           X           Y           Z (BOHR)    CHARGE
                 0.000000    0.000000    0.522186       -0.00 (A.U.)
         DX          DY          DZ         /D/  (DEBYE)
     0.000000    0.000000   -7.240810    7.240810
 ...... END OF PROPERTY EVALUATION ......
 STEP CPU TIME =     0.00 TOTAL CPU TIME =        0.0 (    0.0 MIN)
 TOTAL WALL CLOCK TIME=        0.0 SECONDS, CPU UTILIZATION IS  75.00%

 DETERMINANT CI OPTIONS   NRNFG   NPFLG
 INTEGRAL TRANSFORMATION    1       0
 DIAGONALIZE HAMILTONIAN    1       0
 FORM 1E- DENSITY MATRIX    1       0
 FORM 2E- DENSITY MATRIX    0       0

     --------------------------------------------------
          AMES LABORATORY DETERMINANTAL FULL CI
     PROGRAM WRITTEN BY JOE IVANIC AND KLAUS RUEDENBERG
     --------------------------------------------------

 THE POINT GROUP                  =   C2V     
 THE STATE SYMMETRY               =   A1      
 NUMBER OF CORE ORBITALS          =    0
 NUMBER OF ACTIVE ORBITALS        =   20
 NUMBER OF ALPHA ELECTRONS        =    2 (   2 ACTIVE)
 NUMBER OF BETA ELECTRONS         =    2 (   2 ACTIVE)
 NUMBER OF OCCUPIED ORBITALS      =   20
 NUMBER OF CI STATES REQUESTED    =    1
 NUMBER OF CI STARTING VECTORS    =    1
 MAX. NO. OF CI EXPANSION VECTORS =   10
 SIZE OF INITIAL CI GUESS MATRIX  =  300
 MAX. NO. OF CI ITERS/STATE       =  100
 CI DIAGONALIZATION CRITERION     = 1.00E-06
 CI PROPERTIES WILL BE FOUND FOR ROOT NUMBER   1
 1E- DENSITY MATRIX OPTIONS ARE 1

 CORRELATION ENERGY ANALYSIS      =    F

 SYMMETRIES FOR THE   0 CORE,  20 ACTIVE ARE

   ACTIVE= A1    A1    A1    B1    B2    A1    A1    B1    B2    A1  
           A2    A1    B1    B2    A1    A1    A1    B2    B1    A1  

     --------------------------------------------
     PARTIAL TWO ELECTRON INTEGRAL TRANSFORMATION
     --------------------------------------------

 NUMBER OF CORE MOLECULAR ORBITALS     =    0
 NUMBER OF OCCUPIED MOLECULAR ORBITALS =   20
 TOTAL NUMBER OF MOLECULAR ORBITALS    =   20
 TOTAL NUMBER OF ATOMIC ORBITALS       =   20
 THRESHOLD FOR KEEPING TRANSFORMED 2E- INTEGRALS = 1.000E-09
 AO INTEGRALS WILL BE READ IN FROM DISK...

 PLAN A: REQUIREMENTS FOR FULLY IN-MEMORY TRANSFORMATION:
 # OF WORDS AVAILABLE =              1000000
 # OF WORDS NEEDED    =               146042

 CHOOSING IN MEMORY PARTIAL TRANSFORMATION...
 TOTAL NUMBER OF TRANSFORMED 2E- INTEGRALS KEPT =         5962
 ... END OF INTEGRAL TRANSFORMATION ...
 STEP CPU TIME =     0.01 TOTAL CPU TIME =        0.0 (    0.0 MIN)
 TOTAL WALL CLOCK TIME=        0.1 SECONDS, CPU UTILIZATION IS  80.00%

     --------------------------------------------------
          AMES LABORATORY DETERMINANTAL FULL CI
     PROGRAM WRITTEN BY JOE IVANIC AND KLAUS RUEDENBERG
     --------------------------------------------------

 THE NUMBER OF DETERMINANTS HAVING SPACE SYMMETRY A1 
 IN POINT GROUP C2V  WITH SZ=  0.0 IS           9826
 THE DETERMINANT FULL CI REQUIRES          451749 WORDS
 INITIAL CI VECTOR GUESS TIME  :          0.0
 INITIAL FULL CI ITERATION TIME:          0.0

 ITERATION      ENERGY           GRADIENT
     0       -7.9860571664     0.11588777
     1       -7.9887773397     0.00821263
     2       -7.9888501171     0.00384750
     3       -7.9888593827     0.00108253
     4       -7.9888611173     0.00057052
     5       -7.9888615366     0.00023945
     6       -7.9888615786     0.00006358
     7       -7.9888615818     0.00001699
     8       -7.9888615820     0.00000482
     9       -7.9888615820     0.00000112
    10       -7.9888615820     0.00000025

 CONVERGED STATE    1 ENERGY=       -7.9888615820 IN   10 ITERS

 ALL STATES CONVERGED.

 CI EIGENVECTORS WILL BE LABELED IN GROUP=C2V     
 PRINTING CI COEFFICIENTS LARGER THAN 5.000E-02

 STATE   1  ENERGY=        -7.9888615820  S=  0.00  SZ=  0.00  SPACE SYM=A1  

        ALPHA         |        BETA          | CI COEFFICIENT
----------------------|----------------------|---------------
 11000000000000000000 | 11000000000000000000 |   0.9757206467
 10000100000000000000 | 10000100000000000000 |  -0.0740340507
 10000000010000000000 | 10000000010000000000 |  -0.0669623106
 10100000000000000000 | 10000100000000000000 |   0.0583235456
 10000100000000000000 | 10100000000000000000 |   0.0583235456
 11000000000000000000 | 10100000000000000000 |   0.0541740842
 10100000000000000000 | 11000000000000000000 |   0.0541740842
 ..... DONE WITH DETERMINANT CI COMPUTATION .....
 STEP CPU TIME =     0.22 TOTAL CPU TIME =        0.3 (    0.0 MIN)
 TOTAL WALL CLOCK TIME=        0.3 SECONDS, CPU UTILIZATION IS  78.79%

     ---------------------------
     ONE PARTICLE DENSITY MATRIX
     ---------------------------

 DENSITY MATRIX WILL BE SAVED FOR   1-TH STATE WITH S= 0.00

 CI EIGENSTATE   1 TOTAL ENERGY =       -7.9888615820

          NATURAL ORBITALS IN ATOMIC ORBITAL BASIS
          ----------------------------------------

                      1          2          3          4          5
                    1.9998     1.9180     0.0736     0.0040     0.0017
                     A1         A1         A1         A1         B2  
    1  LI 1  S    0.998805  -0.101491   0.139540   0.036909   0.000000
    2  LI 1  S   -0.007296   0.134897  -0.401142   0.693564   0.000000
    3  LI 1  X    0.000000  -0.000000  -0.000000   0.000000   0.000000
    4  LI 1  Y    0.000000  -0.000000  -0.000000   0.000000   0.686254
    5  LI 1  Z   -0.007146   0.150141  -0.337525   1.094555   0.000000
    6  LI 1  S   -0.000952   0.289781  -0.510824  -0.772733   0.000000
    7  LI 1  X    0.000000  -0.000000  -0.000000   0.000000   0.000000
    8  LI 1  Y    0.000000  -0.000000  -0.000000   0.000000   0.021906
    9  LI 1  Z    0.003963   0.073801  -0.126643  -0.731278   0.000000
   10  LI 1 XX    0.008045   0.008056   0.009153  -0.116731   0.000000
   11  LI 1 YY    0.008045   0.008056   0.009153  -0.116731   0.000000
   12  LI 1 ZZ    0.007196   0.035728  -0.071106   0.619118   0.000000
   13  LI 1 XY    0.000000  -0.000000  -0.000000   0.000000   0.000000
   14  LI 1 XZ    0.000000  -0.000000  -0.000000   0.000000   0.000000
   15  LI 1 YZ    0.000000  -0.000000  -0.000000   0.000000   0.523513
   16  H  2  S   -0.000265   0.281355   0.525700   0.375727   0.000000
   17  H  2  S    0.001186   0.429176   0.528729  -0.760781   0.000000
   18  H  2  X    0.000000  -0.000000  -0.000000   0.000000   0.000000
   19  H  2  Y    0.000000  -0.000000  -0.000000   0.000000   0.413240
   20  H  2  Z   -0.000256  -0.003282   0.008951  -0.299007   0.000000

                      6          7          8          9         10
                    0.0017     0.0006     0.0002     0.0002     0.0001
                     B1         A1         B2         B1         A1  
    1  LI 1  S    0.000000   0.056388   0.000000   0.000000   0.040400
    2  LI 1  S    0.000000  -0.285845   0.000000   0.000000   2.508242
    3  LI 1  X    0.686254  -0.000000   0.000000  -0.532936  -0.000000
    4  LI 1  Y    0.000000  -0.000000  -0.532936   0.000000  -0.000000
    5  LI 1  Z    0.000000   0.232364   0.000000   0.000000   0.654521
    6  LI 1  S    0.000000  -0.498824   0.000000   0.000000  -1.298621
    7  LI 1  X    0.021906  -0.000000   0.000000   0.096834  -0.000000
    8  LI 1  Y    0.000000  -0.000000   0.096834   0.000000  -0.000000
    9  LI 1  Z    0.000000  -0.333627   0.000000   0.000000  -0.568133
   10  LI 1 XX    0.000000   0.006706   0.000000   0.000000  -0.564095
   11  LI 1 YY    0.000000   0.006706   0.000000   0.000000  -0.564095
   12  LI 1 ZZ    0.000000   0.237071   0.000000   0.000000  -0.426360
   13  LI 1 XY    0.000000  -0.000000   0.000000   0.000000  -0.000000
   14  LI 1 XZ    0.523513  -0.000000   0.000000  -0.198051  -0.000000
   15  LI 1 YZ    0.000000  -0.000000  -0.198051   0.000000  -0.000000
   16  H  2  S    0.000000  -1.151167   0.000000   0.000000   0.063040
   17  H  2  S    0.000000   1.295462   0.000000   0.000000  -0.184911
   18  H  2  X    0.413240  -0.000000   0.000000   0.902793  -0.000000
   19  H  2  Y    0.000000  -0.000000   0.902793   0.000000  -0.000000
   20  H  2  Z    0.000000  -0.011797   0.000000   0.000000   0.899260

                     11         12         13         14         15
                    0.0001     0.0000     0.0000     0.0000     0.0000
                     A1         B2         B1         A1         A1  
    1  LI 1  S    0.108776  -0.000000  -0.000000   0.063316  -0.009364
    2  LI 1  S    8.175956  -0.000000  -0.000000   5.113174  -0.152187
    3  LI 1  X   -0.000000  -0.000000  -1.429183  -0.000000   0.000000
    4  LI 1  Y   -0.000000  -1.429183  -0.000000  -0.000000   0.000000
    5  LI 1  Z   -0.784389  -0.000000  -0.000000   0.824952  -0.375024
    6  LI 1  S   -3.305167  -0.000000  -0.000000  -0.878009   0.285428
    7  LI 1  X   -0.000000  -0.000000   1.502387  -0.000000   0.000000
    8  LI 1  Y   -0.000000   1.502387  -0.000000  -0.000000   0.000000
    9  LI 1  Z    0.278788  -0.000000  -0.000000  -0.051164   1.165098
   10  LI 1 XX   -2.356163  -0.000000  -0.000000  -2.039555  -0.378472
   11  LI 1 YY   -2.356163  -0.000000  -0.000000  -2.039555  -0.378471
   12  LI 1 ZZ   -2.367229  -0.000000  -0.000000  -2.005846   0.982564
   13  LI 1 XY   -0.000000  -0.000000  -0.000000  -0.000000   0.000000
   14  LI 1 XZ   -0.000000  -0.000000   0.369025  -0.000000   0.000000
   15  LI 1 YZ   -0.000000   0.369025  -0.000000  -0.000000   0.000000
   16  H  2  S   -0.183889  -0.000000  -0.000000   0.210266   0.254873
   17  H  2  S    0.440989  -0.000000  -0.000000  -0.667233  -1.003563
   18  H  2  X   -0.000000  -0.000000  -0.114400  -0.000000   0.000000
   19  H  2  Y   -0.000000  -0.114400  -0.000000  -0.000000   0.000000
   20  H  2  Z   -0.275452  -0.000000  -0.000000  -0.070281   0.312274

                     16         17         18         19         20
                    0.0000     0.0000     0.0000     0.0000     0.0000
                     B2         B1         A2         A1         A1  
    1  LI 1  S   -0.000000  -0.000000   0.000000   0.000000  -0.078177
    2  LI 1  S   -0.000000  -0.000000   0.000000   0.000001  -0.392468
    3  LI 1  X   -0.000000   0.088178   0.000000  -0.000000  -0.000000
    4  LI 1  Y    0.088178  -0.000000   0.000000  -0.000000  -0.000000
    5  LI 1  Z   -0.000000  -0.000000   0.000000  -0.000000   0.158907
    6  LI 1  S   -0.000000  -0.000000   0.000000  -0.000001   1.092966
    7  LI 1  X   -0.000000  -0.732485   0.000000  -0.000000  -0.000000
    8  LI 1  Y   -0.732485  -0.000000   0.000000  -0.000000  -0.000000
    9  LI 1  Z   -0.000000  -0.000000   0.000000   0.000001  -0.757848
   10  LI 1 XX   -0.000000  -0.000000   0.000000   0.866026  -0.496434
   11  LI 1 YY   -0.000000  -0.000000   0.000000  -0.866025  -0.496437
   12  LI 1 ZZ   -0.000000  -0.000000   0.000000  -0.000000   0.289514
   13  LI 1 XY   -0.000000  -0.000000   1.000000  -0.000000  -0.000000
   14  LI 1 XZ   -0.000000   0.745757   0.000000  -0.000000  -0.000000
   15  LI 1 YZ    0.745757  -0.000000   0.000000  -0.000000  -0.000000
   16  H  2  S   -0.000000  -0.000000   0.000000   0.000000  -0.099910
   17  H  2  S   -0.000000  -0.000000   0.000000  -0.000000   0.082326
   18  H  2  X   -0.000000  -0.094665   0.000000  -0.000000  -0.000000
   19  H  2  Y   -0.094665  -0.000000   0.000000  -0.000000  -0.000000
   20  H  2  Z   -0.000000  -0.000000   0.000000  -0.000000   0.112544
 ..... DONE WITH ONE PARTICLE DENSITY MATRIX .....
 STEP CPU TIME =     0.00 TOTAL CPU TIME =        0.3 (    0.0 MIN)
 TOTAL WALL CLOCK TIME=        0.3 SECONDS, CPU UTILIZATION IS  78.79%

     --------------------------------------------------------
     ALDET CI PROPERTIES...FOR THE WAVEFUNCTION OF STATE    1
               USING THE EXPECTATION VALUE DENSITY
     --------------------------------------------------------

          -----------------
          ENERGY COMPONENTS
          -----------------

         WAVEFUNCTION NORMALIZATION =       1.0000000000

                ONE ELECTRON ENERGY =     -11.8127678713
                TWO ELECTRON ENERGY =       3.1023009494
           NUCLEAR REPULSION ENERGY =       0.7216053399
                                      ------------------
                       TOTAL ENERGY =      -7.9888615820

 ELECTRON-ELECTRON POTENTIAL ENERGY =       3.1023009494
  NUCLEUS-ELECTRON POTENTIAL ENERGY =     -19.7196273397
   NUCLEUS-NUCLEUS POTENTIAL ENERGY =       0.7216053399
                                      ------------------
             TOTAL POTENTIAL ENERGY =     -15.8957210504
               TOTAL KINETIC ENERGY =       7.9068594684
                 VIRIAL RATIO (V/T) =       2.0103710094

          ---------------------------------------
          MULLIKEN AND LOWDIN POPULATION ANALYSES
          ---------------------------------------

               ----- POPULATIONS IN EACH AO -----
                             MULLIKEN      LOWDIN
              1  LI 1  S      1.99808     1.98226
              2  LI 1  S      0.17715     0.18258
              3  LI 1  X      0.00087     0.00070
              4  LI 1  Y      0.00087     0.00070
              5  LI 1  Z      0.15141     0.16160
              6  LI 1  S      0.37869     0.29492
              7  LI 1  X      0.00003     0.00020
              8  LI 1  Y      0.00003     0.00020
              9  LI 1  Z      0.06885     0.11213
             10  LI 1 XX      0.00669     0.03982
             11  LI 1 YY      0.00669     0.03982
             12  LI 1 ZZ      0.04324     0.12714
             13  LI 1 XY      0.00000     0.00000
             14  LI 1 XZ      0.00049     0.00049
             15  LI 1 YZ      0.00049     0.00049
             16  H  2  S      0.39693     0.40258
             17  H  2  S      0.76749     0.65218
             18  H  2  X      0.00049     0.00049
             19  H  2  Y      0.00049     0.00049
             20  H  2  Z      0.00100     0.00119

          ----- MULLIKEN ATOMIC OVERLAP POPULATIONS -----
          (OFF-DIAGONAL ELEMENTS NEED TO BE MULTIPLIED BY 2)

             1           2

    1    2.5484731
    2    0.2851066   0.8813138

          TOTAL MULLIKEN AND LOWDIN ATOMIC POPULATIONS
       ATOM         MULL.POP.    CHARGE          LOW.POP.     CHARGE
    1 LI            2.833580    0.166420         2.943069    0.056931
    2 H             1.166420   -0.166420         1.056931   -0.056931

          ---------------------
          ELECTROSTATIC MOMENTS
          ---------------------

 POINT   1           X           Y           Z (BOHR)    CHARGE
                 0.000000    0.000000    0.522186       -0.00 (A.U.)
         DX          DY          DZ         /D/  (DEBYE)
     0.000000    0.000000   -6.337265    6.337265
 ...... END OF PROPERTY EVALUATION ......
 STEP CPU TIME =     0.01 TOTAL CPU TIME =        0.3 (    0.0 MIN)
 TOTAL WALL CLOCK TIME=        0.3 SECONDS, CPU UTILIZATION IS  81.82%
               580000  WORDS OF DYNAMIC MEMORY USED
 EXECUTION OF GAMESS TERMINATED NORMALLY Thu Jan 17 17:47:14 2019
 DDI: 263640 bytes (0.3 MB / 0 MWords) used by master data server.

 ----------------------------------------
 CPU timing information for all processes
 ========================================
 0: 0.220 + 0.55 = 0.275
 1: 0.10 + 0.45 = 0.55
 ----------------------------------------
 ddikick.x: exited gracefully.
unset echo
----- accounting info -----
Files used on the master node bach.ad64.riken.go.jp were:
-rw-------  1 maho  staff      280  1 17 17:47 .//LiH.631g/2.2/LiH.631g.fullCI.2.2.gamess.F05
-rw-r--r--  1 maho  staff   180016  1 17 17:47 .//LiH.631g/2.2/LiH.631g.fullCI.2.2.gamess.F08
-rw-r--r--  1 maho  staff   181704  1 17 17:47 .//LiH.631g/2.2/LiH.631g.fullCI.2.2.gamess.F09
-rw-r--r--  1 maho  staff  1832320  1 17 17:47 .//LiH.631g/2.2/LiH.631g.fullCI.2.2.gamess.F10
-rw-r--r--  1 maho  staff    78640  1 17 17:47 .//LiH.631g/2.2/LiH.631g.fullCI.2.2.gamess.F12
-rw-r--r--  1 maho  staff    14499  1 17 17:47 .//LiH.631g/2.2/LiH.631g.fullCI.2.2.gamess.dat
-rw-------  1 maho  staff      280  1 17 17:47 .//LiH.631g/2.2/LiH.631g.fullCI.2.2.gamess.inp
-rw-r--r--  1 maho  staff    42804  1 17 17:47 .//LiH.631g/2.2/LiH.631g.fullCI.2.2.gamess.log
ls: No match.
ls: No match.
ls: No match.
2019年 1月17日 木曜日 17時47分17秒 JST
0.339u 0.195s 0:03.55 14.6%	0+0k 0+0io 0pf+0w
