----- GAMESS execution script 'rungms' -----
This job is running on host bach.ad64.riken.go.jp
under operating system Darwin at 2019年 1月17日 木曜日 17時46分04秒 JST
Available scratch disk space (Kbyte units) at beginning of the job is
Filesystem   1024-blocks       Used Available Capacity iused      ifree %iused  Mounted on
/dev/disk2s2  1953178672 1144741084 808437588    59%  984143 4293983136    0%   /Volumes/Users
GAMESS temporary binary files will be written to ./
GAMESS supplementary output files will be written to ./
Copying input file LiH.631g/1.7/LiH.631g.fullCI.1.7.gamess.inp to your run's scratch directory...
cp LiH.631g/1.7/LiH.631g.fullCI.1.7.gamess.inp .//LiH.631g/1.7/LiH.631g.fullCI.1.7.gamess.F05
unset echo
/Volumes/Users/maho/bin/gamess//ddikick.x /Volumes/Users/maho/bin/gamess//gamess.00.x LiH.631g/1.7/LiH.631g.fullCI.1.7.gamess -ddi 1 1 bach.ad64.riken.go.jp -scr ./

 Distributed Data Interface kickoff program.
 Initiating 1 compute processes on 1 nodes to run the following command:
 /Volumes/Users/maho/bin/gamess//gamess.00.x LiH.631g/1.7/LiH.631g.fullCI.1.7.gamess 

          ******************************************************
          *         GAMESS VERSION = 18 AUG 2016 (R1)          *
          *             FROM IOWA STATE UNIVERSITY             *
          * M.W.SCHMIDT, K.K.BALDRIDGE, J.A.BOATZ, S.T.ELBERT, *
          *   M.S.GORDON, J.H.JENSEN, S.KOSEKI, N.MATSUNAGA,   *
          *          K.A.NGUYEN, S.J.SU, T.L.WINDUS,           *
          *       TOGETHER WITH M.DUPUIS, J.A.MONTGOMERY       *
          *         J.COMPUT.CHEM.  14, 1347-1363(1993)        *
          **************** 64 BIT APPLE VERSION ****************

  SINCE 1993, STUDENTS AND POSTDOCS WORKING AT IOWA STATE UNIVERSITY
  AND ALSO IN THEIR VARIOUS JOBS AFTER LEAVING ISU HAVE MADE IMPORTANT
  CONTRIBUTIONS TO THE CODE:
     IVANA ADAMOVIC, CHRISTINE AIKENS, YURI ALEXEEV, POOJA ARORA,
     ANDREY ASADCHEV, ROB BELL, PRADIPTA BANDYOPADHYAY, JONATHAN BENTZ,
     BRETT BODE, KURT BRORSEN, CALEB CARLIN, GALINA CHABAN, WEI CHEN,
     CHEOL HO CHOI, PAUL DAY, ALBERT DEFUSCO, NUWAN DESILVA, TIM DUDLEY,
     DMITRI FEDOROV, GRAHAM FLETCHER, MARK FREITAG, KURT GLAESEMANN,
     DAN KEMP, GRANT MERRILL, NORIYUKI MINEZAWA, JONATHAN MULLIN,
     TAKESHI NAGATA, SEAN NEDD, HEATHER NETZLOFF, BOSILJKA NJEGIC, RYAN OLSON,
     MIKE PAK, SPENCER PRUITT, LUKE ROSKOP, JIM SHOEMAKER, LYUDMILA SLIPCHENKO,
     TONY SMITH, SAROM SOK LEANG, JIE SONG, TETSUYA TAKETSUGU, SIMON WEBB,
     PENG XU, SOOHAENG YOO, FEDERICO ZAHARIEV

  ADDITIONAL CODE HAS BEEN PROVIDED BY COLLABORATORS IN OTHER GROUPS:
     IOWA STATE UNIVERSITY:
          JOE IVANIC, AARON WEST, LAIMUTIS BYTAUTAS, KLAUS RUEDENBERG
     UNIVERSITY OF TOKYO: KIMIHIKO HIRAO, TAKAHITO NAKAJIMA,
          TAKAO TSUNEDA, MUNEAKI KAMIYA, SUSUMU YANAGISAWA,
          KIYOSHI YAGI, MAHITO CHIBA, SEIKEN TOKURA, NAOAKI KAWAKAMI
     UNIVERSITY OF AARHUS: FRANK JENSEN
     UNIVERSITY OF IOWA: VISVALDAS KAIRYS, HUI LI
     NATIONAL INST. OF STANDARDS AND TECHNOLOGY: WALT STEVENS, DAVID GARMER
     UNIVERSITY OF PISA: BENEDETTA MENNUCCI, JACOPO TOMASI
     UNIVERSITY OF MEMPHIS: HENRY KURTZ, PRAKASHAN KORAMBATH
     UNIVERSITY OF ALBERTA: TOBY ZENG, MARIUSZ KLOBUKOWSKI
     UNIVERSITY OF NEW ENGLAND: MARK SPACKMAN
     MIE UNIVERSITY: HIROAKI UMEDA
     NAT. INST. OF ADVANCED INDUSTRIAL SCIENCE AND TECHNOLOGY: KAZUO KITAURA
     MICHIGAN STATE UNIVERSITY:
          KAROL KOWALSKI, MARTA WLOCH, JEFFREY GOUR, JESSE LUTZ,
          WEI LI, PIOTR PIECUCH
     UNIVERSITY OF SILESIA: MONIKA MUSIAL, STANISLAW KUCHARSKI
     FACULTES UNIVERSITAIRES NOTRE-DAME DE LA PAIX:
          OLIVIER QUINET, BENOIT CHAMPAGNE
     UNIVERSITY OF CALIFORNIA - SANTA BARBARA: BERNARD KIRTMAN
     INSTITUTE FOR MOLECULAR SCIENCE:
          KAZUYA ISHIMURA, MICHIO KATOUDA, AND SHIGERU NAGASE
     UNIVERSITY OF NOTRE DAME: ANNA POMOGAEVA, DAN CHIPMAN
     KYUSHU UNIVERSITY:
          HARUYUKI NAKANO,
          FENG LONG GU, JACEK KORCHOWIEC, MARCIN MAKOWSKI, AND YURIKO AOKI,
          HIROTOSHI MORI AND EISAKU MIYOSHI
     PENNSYLVANIA STATE UNIVERSITY:
          TZVETELIN IORDANOV, CHET SWALINA, JONATHAN SKONE,
          SHARON HAMMES-SCHIFFER
     WASEDA UNIVERSITY:
          MASATO KOBAYASHI, TOMOKO AKAMA, TSUGUKI TOUMA,
          TAKESHI YOSHIKAWA, YASUHIRO IKABATA, JUNJI SEINO,
          YUYA NAKAJIMA, HIROMI NAKAI
     NANJING UNIVERSITY: SHUHUA LI
     UNIVERSITY OF NEBRASKA:
          PEIFENG SU, DEJUN SI, NANDUN THELLAMUREGE, YALI WANG, HUI LI
     UNIVERSITY OF ZURICH: ROBERTO PEVERATI, KIM BALDRIDGE
     N. COPERNICUS UNIVERSITY AND JACKSON STATE UNIVERSITY:
          MARIA BARYSZ
     UNIVERSITY OF COPENHAGEN: Jimmy Kromann, CASPER STEINMANN
     TOKYO INSTITUTE OF TECHNOLOGY: HIROYA NAKATA
     NAGOYA UNIVERSITY: YOSHIO NISHIMOTO, STEPHAN IRLE
     MOSCOW STATE UNIVERSITY: VLADIMIR MIRONOV

 EXECUTION OF GAMESS BEGUN Thu Jan 17 17:46:04 2019

            ECHO OF THE FIRST FEW INPUT CARDS -
 INPUT CARD> $CONTRL SCFTYP=RHF CITYP=ALDET $END                                            
 INPUT CARD> $GUESS  GUESS=HUCKEL $END                                                      
 INPUT CARD> $BASIS GBASIS=N31 NGAUSS=6 NDFUNC=1 NPFUNC=1 $END                              
 INPUT CARD> $CIDET SZ=0 GROUP=C2V NCORE=0 NACT=20 NELS=4 $END                              
 INPUT CARD> $DATA                                                                          
 INPUT CARD>LiH...HF...6-31G* basis                                                         
 INPUT CARD>Cnv   2                                                                         
 INPUT CARD>                                                                                
 INPUT CARD>Li    3.0    0.0      0.0     0.0                                               
 INPUT CARD>H     1.0    0.0      0.0     1.7                                               
 INPUT CARD> $END                                                                           
    1000000 WORDS OF MEMORY AVAILABLE

     BASIS OPTIONS
     -------------
     GBASIS=N31          IGAUSS=       6      POLAR=POPN31  
     NDFUNC=       1     NFFUNC=       0     DIFFSP=       F
     NPFUNC=       1      DIFFS=       F     BASNAM=        


     RUN TITLE
     ---------
 LiH...HF...6-31G* basis                                                         

 THE POINT GROUP OF THE MOLECULE IS CNV     
 THE ORDER OF THE PRINCIPAL AXIS IS     2

 ATOM      ATOMIC                      COORDINATES (BOHR)
           CHARGE         X                   Y                   Z
 LI          3.0     0.0000000000        0.0000000000        0.0000000000
 H           1.0     0.0000000000        0.0000000000        3.2125341791

          INTERNUCLEAR DISTANCES (ANGS.)
          ------------------------------

                1 LI         2 H     

   1 LI      0.0000000    1.7000000 *
   2 H       1.7000000 *  0.0000000  

  * ... LESS THAN  3.000


     ATOMIC BASIS SET
     ----------------
 THE CONTRACTED PRIMITIVE FUNCTIONS HAVE BEEN UNNORMALIZED
 THE CONTRACTED BASIS FUNCTIONS ARE NOW NORMALIZED TO UNITY

  SHELL TYPE  PRIMITIVE        EXPONENT          CONTRACTION COEFFICIENT(S)

 LI        

      1   S       1           642.4189150    0.002142607810
      1   S       2            96.7985153    0.016208871501
      1   S       3            22.0911212    0.077315572504
      1   S       4             6.2010702    0.245786052013
      1   S       5             1.9351177    0.470189004025
      1   S       6             0.6367358    0.345470845019

      2   L       7             2.3249184   -0.035091745735    0.008941508043
      2   L       8             0.6324304   -0.191232843103    0.141009464046
      2   L       9             0.0790534    1.083987794916    0.945363695309

      3   L      10             0.0359620    1.000000000000    1.000000000000

      4   D      11             0.2000000    1.000000000000

 H         

      5   S      12            18.7311370    0.033494604338
      5   S      13             2.8253944    0.234726953484
      5   S      14             0.6401217    0.813757326146

      6   S      15             0.1612778    1.000000000000

      7   P      16             1.1000000    1.000000000000

 TOTAL NUMBER OF BASIS SET SHELLS             =    7
 NUMBER OF CARTESIAN GAUSSIAN BASIS FUNCTIONS =   20
 NUMBER OF ELECTRONS                          =    4
 CHARGE OF MOLECULE                           =    0
 SPIN MULTIPLICITY                            =    1
 NUMBER OF OCCUPIED ORBITALS (ALPHA)          =    2
 NUMBER OF OCCUPIED ORBITALS (BETA )          =    2
 TOTAL NUMBER OF ATOMS                        =    2
 THE NUCLEAR REPULSION ENERGY IS        0.9338422045

 THIS MOLECULE IS RECOGNIZED AS BEING LINEAR,
 ORBITAL LZ DEGENERACY TOLERANCE ETOLLZ= 1.00E-06

     $CONTRL OPTIONS
     ---------------
 SCFTYP=RHF          RUNTYP=ENERGY       EXETYP=RUN     
 MPLEVL=       0     CITYP =ALDET        CCTYP =NONE         VBTYP =NONE    
 DFTTYP=NONE         TDDFT =NONE    
 MULT  =       1     ICHARG=       0     NZVAR =       0     COORD =UNIQUE  
 PP    =NONE         RELWFN=NONE         LOCAL =NONE         NUMGRD=       F
 ISPHER=      -1     NOSYM =       0     MAXIT =      30     UNITS =ANGS    
 PLTORB=       F     MOLPLT=       F     AIMPAC=       F     FRIEND=        
 NPRINT=       7     IREST =       0     GEOM  =INPUT   
 NORMF =       0     NORMP =       0     ITOL  =      20     ICUT  =       9
 INTTYP=BEST         GRDTYP=BEST         QMTTOL= 1.0E-06

     $SYSTEM OPTIONS
     ---------------
  REPLICATED MEMORY=     1000000 WORDS (ON EVERY NODE).
 DISTRIBUTED MEMDDI=           0 MILLION WORDS IN AGGREGATE,
 MEMDDI DISTRIBUTED OVER   1 PROCESSORS IS           0 WORDS/PROCESSOR.
 TOTAL MEMORY REQUESTED ON EACH PROCESSOR=     1000000 WORDS.
 TIMLIM=      525600.00 MINUTES, OR     365.0 DAYS.
 PARALL= F  BALTYP=  DLB     KDIAG=    0  COREFL= F
 MXSEQ2=     300 MXSEQ3=     150  mem10=         0

          ----------------
          PROPERTIES INPUT
          ----------------

     MOMENTS            FIELD           POTENTIAL          DENSITY
 IEMOM =       1   IEFLD =       0   IEPOT =       0   IEDEN =       0
 WHERE =COMASS     WHERE =NUCLEI     WHERE =NUCLEI     WHERE =NUCLEI  
 OUTPUT=BOTH       OUTPUT=BOTH       OUTPUT=BOTH       OUTPUT=BOTH    
 IEMINT=       0   IEFINT=       0                     IEDINT=       0
                                                       MORB  =       0
          EXTRAPOLATION IN EFFECT
          SOSCF IN EFFECT
 ORBITAL PRINTING OPTION: NPREO=     1    20     2     1

     -------------------------------
     INTEGRAL TRANSFORMATION OPTIONS
     -------------------------------
     NWORD  =            0
     CUTOFF = 1.0E-09     MPTRAN =       0
     DIRTRF =       F     AOINTS =DUP     

          ----------------------
          INTEGRAL INPUT OPTIONS
          ----------------------
 NOPK  =       1 NORDER=       0 SCHWRZ=       F

     ------------------------------------------
     THE POINT GROUP IS CNV, NAXIS= 2, ORDER= 4
     ------------------------------------------

     DIMENSIONS OF THE SYMMETRY SUBSPACES ARE
 A1  =   11     A2  =    1     B1  =    4     B2  =    4

 ..... DONE SETTING UP THE RUN .....
 STEP CPU TIME =     0.00 TOTAL CPU TIME =        0.0 (    0.0 MIN)
 TOTAL WALL CLOCK TIME=        0.0 SECONDS, CPU UTILIZATION IS   0.00%

          ********************
          1 ELECTRON INTEGRALS
          ********************
 ...... END OF ONE-ELECTRON INTEGRALS ......
 STEP CPU TIME =     0.00 TOTAL CPU TIME =        0.0 (    0.0 MIN)
 TOTAL WALL CLOCK TIME=        0.0 SECONDS, CPU UTILIZATION IS   0.00%

          -------------
          GUESS OPTIONS
          -------------
          GUESS =HUCKEL            NORB  =       0          NORDER=       0
          MIX   =       F          PRTMO =       F          PUNMO =       F
          TOLZ  = 1.0E-08          TOLE  = 1.0E-05
          SYMDEN=       F          PURIFY=       F

 INITIAL GUESS ORBITALS GENERATED BY HUCKEL   ROUTINE.
 HUCKEL GUESS REQUIRES      4469 WORDS.

 SYMMETRIES FOR INITIAL GUESS ORBITALS FOLLOW.   BOTH SET(S).
     2 ORBITALS ARE OCCUPIED (    1 CORE ORBITALS).
     2=A1       3=A1       4=A1       5=A1       6=A1       7=A1       8=A1  
     9=A1      10=A1      11=A1      12=A2  
 ...... END OF INITIAL ORBITAL SELECTION ......
 STEP CPU TIME =     0.00 TOTAL CPU TIME =        0.0 (    0.0 MIN)
 TOTAL WALL CLOCK TIME=        0.0 SECONDS, CPU UTILIZATION IS   0.00%

                    ----------------------
                    AO INTEGRAL TECHNOLOGY
                    ----------------------
     S,P,L SHELL ROTATED AXIS INTEGRALS, REPROGRAMMED BY
        KAZUYA ISHIMURA (IMS) AND JOSE SIERRA (SYNSTAR).
     S,P,D,L SHELL ROTATED AXIS INTEGRALS PROGRAMMED BY
        KAZUYA ISHIMURA (INSTITUTE FOR MOLECULAR SCIENCE).
     S,P,D,F,G SHELL TO TOTAL QUARTET ANGULAR MOMENTUM SUM 5,
        ERIC PROGRAM BY GRAHAM FLETCHER (ELORET AND NASA ADVANCED
        SUPERCOMPUTING DIVISION, AMES RESEARCH CENTER).
     S,P,D,F,G,L SHELL GENERAL RYS QUADRATURE PROGRAMMED BY
        MICHEL DUPUIS (PACIFIC NORTHWEST NATIONAL LABORATORY).

          --------------------
          2 ELECTRON INTEGRALS
          --------------------

 THE -PK- OPTION IS OFF, THE INTEGRALS ARE NOT IN SUPERMATRIX FORM.
 STORING   15000 INTEGRALS/RECORD ON DISK, USING 12 BYTES/INTEGRAL.
 TWO ELECTRON INTEGRAL EVALUATION REQUIRES   90424 WORDS OF MEMORY.
 II,JST,KST,LST =  1  1  1  1 NREC =         1 INTLOC =    1
 II,JST,KST,LST =  2  1  1  1 NREC =         1 INTLOC =    2
 II,JST,KST,LST =  3  1  1  1 NREC =         1 INTLOC =   34
 II,JST,KST,LST =  4  1  1  1 NREC =         1 INTLOC =  214
 II,JST,KST,LST =  5  1  1  1 NREC =         1 INTLOC = 1189
 II,JST,KST,LST =  6  1  1  1 NREC =         1 INTLOC = 1867
 II,JST,KST,LST =  7  1  1  1 NREC =         1 INTLOC = 2713
 TOTAL NUMBER OF NONZERO TWO-ELECTRON INTEGRALS =                5596
          1 INTEGRAL RECORDS WERE STORED ON DISK FILE  8.
  ...... END OF TWO-ELECTRON INTEGRALS .....
 STEP CPU TIME =     0.03 TOTAL CPU TIME =        0.0 (    0.0 MIN)
 TOTAL WALL CLOCK TIME=        0.0 SECONDS, CPU UTILIZATION IS 100.00%

          --------------------------
                 RHF SCF CALCULATION
          --------------------------

     NUCLEAR ENERGY =         0.9338422045
     MAXIT =   30     NPUNCH=    2
     EXTRAP=T  DAMP=F  SHIFT=F  RSTRCT=F  DIIS=F  DEM=F  SOSCF=T
     DENSITY MATRIX CONV=  1.00E-06
     SOSCF WILL OPTIMIZE      36 ORBITAL ROTATIONS, SOGTOL=   0.250
     MEMORY REQUIRED FOR RHF ITERS=     33224 WORDS.

 ITER EX DEM     TOTAL ENERGY        E CHANGE  DENSITY CHANGE     ORB. GRAD
   1  0  0       -7.8750196763    -7.8750196763   0.325924011   0.000000000
          ---------------START SECOND ORDER SCF---------------
   2  1  0       -7.9743260469    -0.0993063705   0.047315052   0.020213292
   3  2  0       -7.9799929157    -0.0056668689   0.027564454   0.006328634
   4  3  0       -7.9807843610    -0.0007914453   0.002798559   0.001030651
   5  4  0       -7.9807939811    -0.0000096201   0.000574304   0.000196851
   6  5  0       -7.9807941191    -0.0000001380   0.000068042   0.000012843
   7  6  0       -7.9807941205    -0.0000000014   0.000011568   0.000001315
   8  7  0       -7.9807941206    -0.0000000000   0.000000335   0.000000103
   9  8  0       -7.9807941206    -0.0000000000   0.000000048   0.000000016

          -----------------
          DENSITY CONVERGED
          -----------------
     TIME TO FORM FOCK OPERATORS=       0.0 SECONDS (       0.0 SEC/ITER)
     TIME TO SOLVE SCF EQUATIONS=       0.0 SECONDS (       0.0 SEC/ITER)

 FINAL RHF ENERGY IS       -7.9807941206 AFTER   9 ITERATIONS

 LZ VALUE ANALYSIS FOR THE MOS
 ----------------------------------------
 MO     1 (    1) HAS LZ(WEIGHT)= 0.00(100.0%) 
 MO     2 (    2) HAS LZ(WEIGHT)= 0.00(100.0%) 
 MO     3 (    3) HAS LZ(WEIGHT)= 0.00(100.0%) 
 MO     4 (    4) HAS LZ(WEIGHT)=-1.00( 50.0%)  1.00( 50.0%) 
 MO     5 (    4) HAS LZ(WEIGHT)=-1.00( 50.0%)  1.00( 50.0%) 
 MO     6 (    5) HAS LZ(WEIGHT)= 0.00(100.0%) 
 MO     7 (    6) HAS LZ(WEIGHT)= 0.00(100.0%) 
 MO     8 (    7) HAS LZ(WEIGHT)=-1.00( 50.0%)  1.00( 50.0%) 
 MO     9 (    7) HAS LZ(WEIGHT)=-1.00( 50.0%)  1.00( 50.0%) 
 MO    10 (    8) HAS LZ(WEIGHT)= 0.00(100.0%) 
 MO    11 (    9) HAS LZ(WEIGHT)=-1.00( 50.0%)  1.00( 50.0%) 
 MO    12 (    9) HAS LZ(WEIGHT)=-1.00( 50.0%)  1.00( 50.0%) 
 MO    13 (   10) HAS LZ(WEIGHT)=-2.00( 50.0%)  2.00( 50.0%) 
 MO    14 (   10) HAS LZ(WEIGHT)=-2.00( 50.0%)  2.00( 50.0%) 
 MO    15 (   11) HAS LZ(WEIGHT)= 0.00(100.0%) 
 MO    16 (   12) HAS LZ(WEIGHT)= 0.00(100.0%) 
 MO    17 (   13) HAS LZ(WEIGHT)= 0.00(100.0%) 
 MO    18 (   14) HAS LZ(WEIGHT)=-1.00( 50.0%)  1.00( 50.0%) 
 MO    19 (   14) HAS LZ(WEIGHT)=-1.00( 50.0%)  1.00( 50.0%) 
 MO    20 (   15) HAS LZ(WEIGHT)= 0.00(100.0%) 

          ------------
          EIGENVECTORS
          ------------

                      1          2          3          4          5
                   -2.4573    -0.2942     0.0065     0.0589     0.0589
                     A1         A1         A1         B2         B1  
    1  LI 1  S    0.998354  -0.121725  -0.143849  -0.000000  -0.000000
    2  LI 1  S   -0.009591   0.186949  -0.386510  -0.000000  -0.000000
    3  LI 1  X    0.000000  -0.000000   0.000000  -0.000000   0.021569
    4  LI 1  Y    0.000000  -0.000000   0.000000   0.021569  -0.000000
    5  LI 1  Z   -0.011235   0.229973  -0.177507  -0.000000  -0.000000
    6  LI 1  S   -0.000445   0.183749   0.975685  -0.000000  -0.000000
    7  LI 1  X    0.000000  -0.000000   0.000000  -0.000000   0.981975
    8  LI 1  Y    0.000000  -0.000000   0.000000   0.981975  -0.000000
    9  LI 1  Z    0.005617   0.015189  -0.497817  -0.000000  -0.000000
   10  LI 1 XX    0.008792  -0.006961   0.069467  -0.000000  -0.000000
   11  LI 1 YY    0.008792  -0.006961   0.069467  -0.000000  -0.000000
   12  LI 1 ZZ    0.006084   0.041626   0.085260  -0.000000  -0.000000
   13  LI 1 XY    0.000000  -0.000000   0.000000  -0.000000  -0.000000
   14  LI 1 XZ    0.000000  -0.000000   0.000000  -0.000000  -0.028745
   15  LI 1 YZ    0.000000  -0.000000   0.000000  -0.028745  -0.000000
   16  H  2  S    0.001848   0.283131  -0.060165  -0.000000  -0.000000
   17  H  2  S    0.005602   0.412607  -0.071545  -0.000000  -0.000000
   18  H  2  X    0.000000  -0.000000   0.000000  -0.000000   0.004739
   19  H  2  Y    0.000000  -0.000000   0.000000   0.004739  -0.000000
   20  H  2  Z   -0.001260  -0.009097   0.002417  -0.000000  -0.000000

                      6          7          8          9         10
                    0.1458     0.1922     0.2194     0.2194     0.3296
                     A1         A1         B2         B1         A1  
    1  LI 1  S   -0.057307   0.054805   0.000000   0.000000   0.037925
    2  LI 1  S   -0.326806   2.798487   0.000000   0.000000   1.712222
    3  LI 1  X    0.000000  -0.000000   0.000000   1.669387  -0.000000
    4  LI 1  Y    0.000000  -0.000000   1.669387   0.000000  -0.000000
    5  LI 1  Z   -0.643558  -0.873573   0.000000   0.000000   1.500459
    6  LI 1  S    0.827034  -2.237531   0.000000   0.000000  -0.688432
    7  LI 1  X    0.000000  -0.000000   0.000000  -1.354419  -0.000000
    8  LI 1  Y    0.000000  -0.000000  -1.354419   0.000000  -0.000000
    9  LI 1  Z    1.382282   0.490975   0.000000   0.000000  -0.598623
   10  LI 1 XX    0.057491  -0.281441   0.000000   0.000000  -0.014622
   11  LI 1 YY    0.057491  -0.281441   0.000000   0.000000  -0.014622
   12  LI 1 ZZ    0.097510  -0.244375   0.000000   0.000000  -0.306693
   13  LI 1 XY    0.000000  -0.000000   0.000000   0.000000  -0.000000
   14  LI 1 XZ    0.000000  -0.000000   0.000000  -0.070540  -0.000000
   15  LI 1 YZ    0.000000  -0.000000  -0.070540   0.000000  -0.000000
   16  H  2  S   -0.093474   0.003083   0.000000   0.000000  -0.076668
   17  H  2  S   -0.619677   0.231877   0.000000   0.000000  -1.082608
   18  H  2  X    0.000000  -0.000000   0.000000   0.006600  -0.000000
   19  H  2  Y    0.000000  -0.000000   0.006600   0.000000  -0.000000
   20  H  2  Z    0.010863   0.004716   0.000000   0.000000  -0.024324

                     11         12         13         14         15
                    0.5716     0.5716     0.5765     0.5765     0.7465
                     B2         B1         A2         A1         A1  
    1  LI 1  S   -0.000000  -0.000000   0.000000   0.000000  -0.065198
    2  LI 1  S   -0.000000  -0.000000   0.000000   0.000000  -0.268429
    3  LI 1  X   -0.000000   0.113978   0.000000   0.000000  -0.000000
    4  LI 1  Y    0.113978  -0.000000   0.000000   0.000000  -0.000000
    5  LI 1  Z   -0.000000  -0.000000   0.000000   0.000000  -1.292915
    6  LI 1  S   -0.000000  -0.000000   0.000000   0.000000  -0.295142
    7  LI 1  X   -0.000000  -0.065769   0.000000   0.000000  -0.000000
    8  LI 1  Y   -0.065769  -0.000000   0.000000   0.000000  -0.000000
    9  LI 1  Z   -0.000000  -0.000000   0.000000   0.000000   0.123515
   10  LI 1 XX   -0.000000  -0.000000   0.000000  -0.866025   0.449507
   11  LI 1 YY   -0.000000  -0.000000   0.000000   0.866025   0.449507
   12  LI 1 ZZ   -0.000000  -0.000000   0.000000   0.000000  -1.518033
   13  LI 1 XY   -0.000000  -0.000000   1.000000   0.000000  -0.000000
   14  LI 1 XZ   -0.000000   0.992843   0.000000   0.000000  -0.000000
   15  LI 1 YZ    0.992843  -0.000000   0.000000   0.000000  -0.000000
   16  H  2  S   -0.000000  -0.000000   0.000000   0.000000  -0.107629
   17  H  2  S   -0.000000  -0.000000   0.000000   0.000000   1.924144
   18  H  2  X   -0.000000   0.022090   0.000000   0.000000  -0.000000
   19  H  2  Y    0.022090  -0.000000   0.000000   0.000000  -0.000000
   20  H  2  Z   -0.000000  -0.000000   0.000000   0.000000  -0.002516

                     16         17         18         19         20
                    1.1832     1.3647     2.5508     2.5508     2.7662
                     A1         A1         B2         B1         A1  
    1  LI 1  S    0.077254   0.130951  -0.000000  -0.000000   0.042820
    2  LI 1  S    8.401643   4.666374  -0.000000  -0.000000   0.318346
    3  LI 1  X   -0.000000   0.000000  -0.000000  -0.126689  -0.000000
    4  LI 1  Y   -0.000000   0.000000  -0.126689  -0.000000  -0.000000
    5  LI 1  Z    0.112158   0.159816  -0.000000  -0.000000   0.795100
    6  LI 1  S   -2.656027  -1.149569  -0.000000  -0.000000  -0.026044
    7  LI 1  X   -0.000000   0.000000  -0.000000   0.044751  -0.000000
    8  LI 1  Y   -0.000000   0.000000   0.044751  -0.000000  -0.000000
    9  LI 1  Z   -0.099470   0.220655  -0.000000  -0.000000  -0.219484
   10  LI 1 XX   -2.885446  -1.425423  -0.000000  -0.000000  -0.124889
   11  LI 1 YY   -2.885446  -1.425423  -0.000000  -0.000000  -0.124889
   12  LI 1 ZZ   -2.576324  -1.651051  -0.000000  -0.000000   0.590160
   13  LI 1 XY   -0.000000   0.000000  -0.000000  -0.000000  -0.000000
   14  LI 1 XZ   -0.000000   0.000000  -0.000000  -0.212545  -0.000000
   15  LI 1 YZ   -0.000000   0.000000  -0.212545  -0.000000  -0.000000
   16  H  2  S   -0.487768   1.315794  -0.000000  -0.000000   0.047468
   17  H  2  S    0.318289  -1.425435  -0.000000  -0.000000  -0.889943
   18  H  2  X   -0.000000   0.000000  -0.000000   1.021479  -0.000000
   19  H  2  Y   -0.000000   0.000000   1.021479  -0.000000  -0.000000
   20  H  2  Z   -0.016675  -0.033126  -0.000000  -0.000000   1.088404
 ...... END OF RHF CALCULATION ......
 STEP CPU TIME =     0.00 TOTAL CPU TIME =        0.0 (    0.0 MIN)
 TOTAL WALL CLOCK TIME=        0.0 SECONDS, CPU UTILIZATION IS  75.00%

     ----------------------------------------------------------------
     PROPERTY VALUES FOR THE RHF   SELF-CONSISTENT FIELD WAVEFUNCTION
     ----------------------------------------------------------------

          -----------------
          ENERGY COMPONENTS
          -----------------

         WAVEFUNCTION NORMALIZATION =       1.0000000000

                ONE ELECTRON ENERGY =     -12.3263834571
                TWO ELECTRON ENERGY =       3.4117471320
           NUCLEAR REPULSION ENERGY =       0.9338422045
                                      ------------------
                       TOTAL ENERGY =      -7.9807941206

 ELECTRON-ELECTRON POTENTIAL ENERGY =       3.4117471320
  NUCLEUS-ELECTRON POTENTIAL ENERGY =     -20.2993171957
   NUCLEUS-NUCLEUS POTENTIAL ENERGY =       0.9338422045
                                      ------------------
             TOTAL POTENTIAL ENERGY =     -15.9537278591
               TOTAL KINETIC ENERGY =       7.9729337385
                 VIRIAL RATIO (V/T) =       2.0009858833

  ...... PI ENERGY ANALYSIS ......

 ENERGY ANALYSIS:
            FOCK ENERGY=     -5.5028891939
          BARE H ENERGY=    -12.3263834571
     ELECTRONIC ENERGY =     -8.9146363255
         KINETIC ENERGY=      7.9729337385
          N-N REPULSION=      0.9338422045
           TOTAL ENERGY=     -7.9807941210
        SIGMA PART(1+2)=     -8.9146363255
               (K,V1,2)=      7.9729337385    -20.2993171957      3.4117471316
           PI PART(1+2)=      0.0000000000
               (K,V1,2)=      0.0000000000      0.0000000000      0.0000000000
  SIGMA SKELETON, ERROR=     -7.9807941210      0.0000000000
             MIXED PART= 0.00000E+00 0.00000E+00 0.00000E+00 0.00000E+00
 ...... END OF PI ENERGY ANALYSIS ......

          ---------------------------------------
          MULLIKEN AND LOWDIN POPULATION ANALYSES
          ---------------------------------------

               ----- POPULATIONS IN EACH AO -----
                             MULLIKEN      LOWDIN
              1  LI 1  S      1.99812     1.98328
              2  LI 1  S      0.23637     0.17696
              3  LI 1  X      0.00000     0.00000
              4  LI 1  Y      0.00000     0.00000
              5  LI 1  Z      0.27614     0.26055
              6  LI 1  S      0.22316     0.20755
              7  LI 1  X      0.00000     0.00000
              8  LI 1  Y      0.00000     0.00000
              9  LI 1  Z      0.01421     0.08818
             10  LI 1 XX     -0.00301     0.03474
             11  LI 1 YY     -0.00301     0.03474
             12  LI 1 ZZ      0.05622     0.17979
             13  LI 1 XY      0.00000     0.00000
             14  LI 1 XZ      0.00000     0.00000
             15  LI 1 YZ      0.00000     0.00000
             16  H  2  S      0.41393     0.40066
             17  H  2  S      0.78700     0.63303
             18  H  2  X      0.00000     0.00000
             19  H  2  Y      0.00000     0.00000
             20  H  2  Z      0.00089     0.00049

          ----- MULLIKEN ATOMIC OVERLAP POPULATIONS -----
          (OFF-DIAGONAL ELEMENTS NEED TO BE MULTIPLIED BY 2)

             1           2

    1    2.4050491
    2    0.3931298   0.8086914

          TOTAL MULLIKEN AND LOWDIN ATOMIC POPULATIONS
       ATOM         MULL.POP.    CHARGE          LOW.POP.     CHARGE
    1 LI            2.798179    0.201821         2.965815    0.034185
    2 H             1.201821   -0.201821         1.034185   -0.034185

          ---------------------
          ELECTROSTATIC MOMENTS
          ---------------------

 POINT   1           X           Y           Z (BOHR)    CHARGE
                 0.000000    0.000000    0.403507       -0.00 (A.U.)
         DX          DY          DZ         /D/  (DEBYE)
     0.000000    0.000000   -6.098184    6.098184
 ...... END OF PROPERTY EVALUATION ......
 STEP CPU TIME =     0.01 TOTAL CPU TIME =        0.0 (    0.0 MIN)
 TOTAL WALL CLOCK TIME=        0.0 SECONDS, CPU UTILIZATION IS 100.00%

 DETERMINANT CI OPTIONS   NRNFG   NPFLG
 INTEGRAL TRANSFORMATION    1       0
 DIAGONALIZE HAMILTONIAN    1       0
 FORM 1E- DENSITY MATRIX    1       0
 FORM 2E- DENSITY MATRIX    0       0

     --------------------------------------------------
          AMES LABORATORY DETERMINANTAL FULL CI
     PROGRAM WRITTEN BY JOE IVANIC AND KLAUS RUEDENBERG
     --------------------------------------------------

 THE POINT GROUP                  =   C2V     
 THE STATE SYMMETRY               =   A1      
 NUMBER OF CORE ORBITALS          =    0
 NUMBER OF ACTIVE ORBITALS        =   20
 NUMBER OF ALPHA ELECTRONS        =    2 (   2 ACTIVE)
 NUMBER OF BETA ELECTRONS         =    2 (   2 ACTIVE)
 NUMBER OF OCCUPIED ORBITALS      =   20
 NUMBER OF CI STATES REQUESTED    =    1
 NUMBER OF CI STARTING VECTORS    =    1
 MAX. NO. OF CI EXPANSION VECTORS =   10
 SIZE OF INITIAL CI GUESS MATRIX  =  300
 MAX. NO. OF CI ITERS/STATE       =  100
 CI DIAGONALIZATION CRITERION     = 1.00E-06
 CI PROPERTIES WILL BE FOUND FOR ROOT NUMBER   1
 1E- DENSITY MATRIX OPTIONS ARE 1

 CORRELATION ENERGY ANALYSIS      =    F

 SYMMETRIES FOR THE   0 CORE,  20 ACTIVE ARE

   ACTIVE= A1    A1    A1    B2    B1    A1    A1    B2    B1    A1  
           B2    B1    A2    A1    A1    A1    A1    B2    B1    A1  

     --------------------------------------------
     PARTIAL TWO ELECTRON INTEGRAL TRANSFORMATION
     --------------------------------------------

 NUMBER OF CORE MOLECULAR ORBITALS     =    0
 NUMBER OF OCCUPIED MOLECULAR ORBITALS =   20
 TOTAL NUMBER OF MOLECULAR ORBITALS    =   20
 TOTAL NUMBER OF ATOMIC ORBITALS       =   20
 THRESHOLD FOR KEEPING TRANSFORMED 2E- INTEGRALS = 1.000E-09
 AO INTEGRALS WILL BE READ IN FROM DISK...

 PLAN A: REQUIREMENTS FOR FULLY IN-MEMORY TRANSFORMATION:
 # OF WORDS AVAILABLE =              1000000
 # OF WORDS NEEDED    =               146042

 CHOOSING IN MEMORY PARTIAL TRANSFORMATION...
 TOTAL NUMBER OF TRANSFORMED 2E- INTEGRALS KEPT =         5962
 ... END OF INTEGRAL TRANSFORMATION ...
 STEP CPU TIME =     0.00 TOTAL CPU TIME =        0.0 (    0.0 MIN)
 TOTAL WALL CLOCK TIME=        0.0 SECONDS, CPU UTILIZATION IS 100.00%

     --------------------------------------------------
          AMES LABORATORY DETERMINANTAL FULL CI
     PROGRAM WRITTEN BY JOE IVANIC AND KLAUS RUEDENBERG
     --------------------------------------------------

 THE NUMBER OF DETERMINANTS HAVING SPACE SYMMETRY A1 
 IN POINT GROUP C2V  WITH SZ=  0.0 IS           9826
 THE DETERMINANT FULL CI REQUIRES          451749 WORDS
 INITIAL CI VECTOR GUESS TIME  :          0.0
 INITIAL FULL CI ITERATION TIME:          0.0

 ITERATION      ENERGY           GRADIENT
     0       -8.0050800724     0.12871597
     1       -8.0084251582     0.00867175
     2       -8.0084959595     0.00382910
     3       -8.0085043992     0.00110430
     4       -8.0085058990     0.00047568
     5       -8.0085061437     0.00016896
     6       -8.0085061639     0.00003775
     7       -8.0085061651     0.00001049
     8       -8.0085061652     0.00000245
     9       -8.0085061652     0.00000045

 CONVERGED STATE    1 ENERGY=       -8.0085061652 IN    9 ITERS

 ALL STATES CONVERGED.

 CI EIGENVECTORS WILL BE LABELED IN GROUP=C2V     
 PRINTING CI COEFFICIENTS LARGER THAN 5.000E-02

 STATE   1  ENERGY=        -8.0085061652  S=  0.00  SZ=  0.00  SPACE SYM=A1  

        ALPHA         |        BETA          | CI COEFFICIENT
----------------------|----------------------|---------------
 11000000000000000000 | 11000000000000000000 |   0.9864502225
 10000000010000000000 | 10000000010000000000 |  -0.0568783441
 10000100000000000000 | 10000100000000000000 |  -0.0527217771
 ..... DONE WITH DETERMINANT CI COMPUTATION .....
 STEP CPU TIME =     0.23 TOTAL CPU TIME =        0.3 (    0.0 MIN)
 TOTAL WALL CLOCK TIME=        0.4 SECONDS, CPU UTILIZATION IS  77.14%

     ---------------------------
     ONE PARTICLE DENSITY MATRIX
     ---------------------------

 DENSITY MATRIX WILL BE SAVED FOR   1-TH STATE WITH S= 0.00

 CI EIGENSTATE   1 TOTAL ENERGY =       -8.0085061652

          NATURAL ORBITALS IN ATOMIC ORBITAL BASIS
          ----------------------------------------

                      1          2          3          4          5
                    1.9998     1.9503     0.0365     0.0041     0.0041
                     A1         A1         A1         B2         B1  
    1  LI 1  S    0.999521  -0.114739   0.102750   0.000000   0.000000
    2  LI 1  S   -0.007936   0.199496  -0.628736   0.000000   0.000000
    3  LI 1  X    0.000000  -0.000000   0.000000   0.000000   0.778754
    4  LI 1  Y    0.000000  -0.000000   0.000000   0.778754   0.000000
    5  LI 1  Z   -0.012909   0.224421  -0.427160   0.000000   0.000000
    6  LI 1  S   -0.003581   0.201841  -0.426476   0.000000   0.000000
    7  LI 1  X    0.000000  -0.000000   0.000000   0.000000  -0.145764
    8  LI 1  Y    0.000000  -0.000000   0.000000  -0.145764   0.000000
    9  LI 1  Z    0.005294   0.014246  -0.104995   0.000000   0.000000
   10  LI 1 XX    0.007977  -0.003920   0.030246   0.000000   0.000000
   11  LI 1 YY    0.007977  -0.003920   0.030246   0.000000   0.000000
   12  LI 1 ZZ    0.004995   0.039312   0.008328   0.000000   0.000000
   13  LI 1 XY    0.000000  -0.000000   0.000000   0.000000   0.000000
   14  LI 1 XZ    0.000000  -0.000000   0.000000   0.000000   0.564674
   15  LI 1 YZ    0.000000  -0.000000   0.000000   0.564674   0.000000
   16  H  2  S   -0.001314   0.297211   0.675678   0.000000   0.000000
   17  H  2  S    0.001278   0.384644   0.484474   0.000000   0.000000
   18  H  2  X    0.000000  -0.000000   0.000000   0.000000   0.350353
   19  H  2  Y    0.000000  -0.000000   0.000000   0.350353   0.000000
   20  H  2  Z   -0.001183  -0.008343   0.003142   0.000000   0.000000

                      6          7          8          9         10
                    0.0040     0.0005     0.0002     0.0002     0.0001
                     A1         A1         B1         B2         A1  
    1  LI 1  S    0.091039  -0.000298   0.000000   0.000000   0.074715
    2  LI 1  S    1.553200  -0.237132   0.000000   0.000000   2.315224
    3  LI 1  X   -0.000000   0.000000  -0.613814   0.000000  -0.000000
    4  LI 1  Y   -0.000000   0.000000   0.000000  -0.613814  -0.000000
    5  LI 1  Z    1.412713   0.288200   0.000000   0.000000   1.002882
    6  LI 1  S   -0.832808  -0.660495   0.000000   0.000000  -1.225245
    7  LI 1  X   -0.000000   0.000000   0.157869   0.000000  -0.000000
    8  LI 1  Y   -0.000000   0.000000   0.000000   0.157869  -0.000000
    9  LI 1  Z   -0.741766  -0.472101   0.000000   0.000000  -0.734531
   10  LI 1 XX   -0.270481  -0.058046   0.000000   0.000000  -0.418786
   11  LI 1 YY   -0.270482  -0.058046   0.000000   0.000000  -0.418786
   12  LI 1 ZZ    0.512162   0.327876   0.000000   0.000000  -0.130723
   13  LI 1 XY   -0.000000   0.000000   0.000000   0.000000  -0.000000
   14  LI 1 XZ   -0.000000   0.000000  -0.204524   0.000000  -0.000000
   15  LI 1 YZ   -0.000000   0.000000   0.000000  -0.204524  -0.000000
   16  H  2  S    0.338983  -1.136938   0.000000   0.000000   0.066187
   17  H  2  S   -1.475129   1.341810   0.000000   0.000000  -0.654700
   18  H  2  X   -0.000000   0.000000   0.927076   0.000000  -0.000000
   19  H  2  Y   -0.000000   0.000000   0.000000   0.927076  -0.000000
   20  H  2  Z   -0.355702  -0.052965   0.000000   0.000000   0.911498

                     11         12         13         14         15
                    0.0001     0.0000     0.0000     0.0000     0.0000
                     A1         B1         B2         A1         A1  
    1  LI 1  S    0.047737  -0.000000  -0.000000   0.124657  -0.000000
    2  LI 1  S    6.988729  -0.000000  -0.000000   6.654824  -0.000000
    3  LI 1  X   -0.000000  -1.343572  -0.000000  -0.000000   0.000000
    4  LI 1  Y   -0.000000  -0.000000  -1.343572  -0.000000   0.000000
    5  LI 1  Z   -1.220950  -0.000000  -0.000000   1.004654  -0.000000
    6  LI 1  S   -3.000696  -0.000000  -0.000000  -1.351455  -0.000000
    7  LI 1  X   -0.000000   1.411312  -0.000000  -0.000000   0.000000
    8  LI 1  Y   -0.000000  -0.000000   1.411312  -0.000000   0.000000
    9  LI 1  Z    0.351739  -0.000000  -0.000000  -0.140740  -0.000000
   10  LI 1 XX   -1.954537  -0.000000  -0.000000  -2.542904   0.866026
   11  LI 1 YY   -1.954537  -0.000000  -0.000000  -2.542904  -0.866025
   12  LI 1 ZZ   -2.228151  -0.000000  -0.000000  -2.119048  -0.000000
   13  LI 1 XY   -0.000000  -0.000000  -0.000000  -0.000000   0.000000
   14  LI 1 XZ   -0.000000   0.487000  -0.000000  -0.000000   0.000000
   15  LI 1 YZ   -0.000000  -0.000000   0.487000  -0.000000   0.000000
   16  H  2  S   -0.089931  -0.000000  -0.000000   0.272063   0.000000
   17  H  2  S    0.852786  -0.000000  -0.000000  -1.025187   0.000000
   18  H  2  X   -0.000000  -0.158151  -0.000000  -0.000000   0.000000
   19  H  2  Y   -0.000000  -0.000000  -0.158151  -0.000000   0.000000
   20  H  2  Z   -0.252068  -0.000000  -0.000000   0.043713  -0.000000

                     16         17         18         19         20
                    0.0000     0.0000     0.0000     0.0000     0.0000
                     A2         B1         B2         A1         A1  
    1  LI 1  S    0.000000   0.000000   0.000000   0.047788   0.111402
    2  LI 1  S    0.000000   0.000000   0.000000   0.095095   1.479313
    3  LI 1  X    0.000000  -0.167177   0.000000   0.000000   0.000000
    4  LI 1  Y    0.000000   0.000000  -0.167177   0.000000   0.000000
    5  LI 1  Z    0.000000   0.000000   0.000000   0.143063  -0.130483
    6  LI 1  S    0.000000   0.000000   0.000000   0.136885  -1.382367
    7  LI 1  X    0.000000   0.875832   0.000000   0.000000   0.000000
    8  LI 1  Y    0.000000   0.000000   0.875832   0.000000   0.000000
    9  LI 1  Z    0.000000   0.000000   0.000000   0.832827   0.848052
   10  LI 1 XX    0.000000   0.000000   0.000000  -0.345249   0.065439
   11  LI 1 YY    0.000000   0.000000   0.000000  -0.345249   0.065439
   12  LI 1 ZZ    0.000000   0.000000   0.000000   1.405835  -0.607058
   13  LI 1 XY    1.000000   0.000000   0.000000   0.000000   0.000000
   14  LI 1 XZ    0.000000  -0.662465   0.000000   0.000000   0.000000
   15  LI 1 YZ    0.000000   0.000000  -0.662465   0.000000   0.000000
   16  H  2  S    0.000000   0.000000   0.000000  -0.008741   0.206164
   17  H  2  S    0.000000   0.000000   0.000000  -1.340298  -0.224267
   18  H  2  X    0.000000   0.191688   0.000000   0.000000   0.000000
   19  H  2  Y    0.000000   0.000000   0.191688   0.000000   0.000000
   20  H  2  Z    0.000000   0.000000   0.000000   0.393740  -0.078158
 ..... DONE WITH ONE PARTICLE DENSITY MATRIX .....
 STEP CPU TIME =     0.02 TOTAL CPU TIME =        0.3 (    0.0 MIN)
 TOTAL WALL CLOCK TIME=        0.4 SECONDS, CPU UTILIZATION IS  82.86%

     --------------------------------------------------------
     ALDET CI PROPERTIES...FOR THE WAVEFUNCTION OF STATE    1
               USING THE EXPECTATION VALUE DENSITY
     --------------------------------------------------------

          -----------------
          ENERGY COMPONENTS
          -----------------

         WAVEFUNCTION NORMALIZATION =       1.0000000000

                ONE ELECTRON ENERGY =     -12.2982680658
                TWO ELECTRON ENERGY =       3.3559196961
           NUCLEAR REPULSION ENERGY =       0.9338422045
                                      ------------------
                       TOTAL ENERGY =      -8.0085061652

 ELECTRON-ELECTRON POTENTIAL ENERGY =       3.3559196961
  NUCLEUS-ELECTRON POTENTIAL ENERGY =     -20.3084094237
   NUCLEUS-NUCLEUS POTENTIAL ENERGY =       0.9338422045
                                      ------------------
             TOTAL POTENTIAL ENERGY =     -16.0186475231
               TOTAL KINETIC ENERGY =       8.0101413579
                 VIRIAL RATIO (V/T) =       1.9997958597

          ---------------------------------------
          MULLIKEN AND LOWDIN POPULATION ANALYSES
          ---------------------------------------

               ----- POPULATIONS IN EACH AO -----
                             MULLIKEN      LOWDIN
              1  LI 1  S      1.99806     1.98353
              2  LI 1  S      0.26806     0.19179
              3  LI 1  X      0.00225     0.00173
              4  LI 1  Y      0.00225     0.00173
              5  LI 1  Z      0.25434     0.23682
              6  LI 1  S      0.25557     0.22961
              7  LI 1  X     -0.00029     0.00022
              8  LI 1  Y     -0.00029     0.00022
              9  LI 1  Z      0.01350     0.08002
             10  LI 1 XX     -0.00183     0.04181
             11  LI 1 YY     -0.00183     0.04181
             12  LI 1 ZZ      0.05277     0.17749
             13  LI 1 XY      0.00001     0.00001
             14  LI 1 XZ      0.00146     0.00145
             15  LI 1 YZ      0.00146     0.00145
             16  H  2  S      0.43844     0.41394
             17  H  2  S      0.71248     0.59263
             18  H  2  X      0.00091     0.00093
             19  H  2  Y      0.00091     0.00093
             20  H  2  Z      0.00178     0.00188

          ----- MULLIKEN ATOMIC OVERLAP POPULATIONS -----
          (OFF-DIAGONAL ELEMENTS NEED TO BE MULTIPLIED BY 2)

             1           2

    1    2.4955662
    2    0.3499087   0.8046165

          TOTAL MULLIKEN AND LOWDIN ATOMIC POPULATIONS
       ATOM         MULL.POP.    CHARGE          LOW.POP.     CHARGE
    1 LI            2.845475    0.154525         2.989679    0.010321
    2 H             1.154525   -0.154525         1.010321   -0.010321

          ---------------------
          ELECTROSTATIC MOMENTS
          ---------------------

 POINT   1           X           Y           Z (BOHR)    CHARGE
                 0.000000    0.000000    0.403507        0.00 (A.U.)
         DX          DY          DZ         /D/  (DEBYE)
     0.000000    0.000000   -5.740461    5.740461
 ...... END OF PROPERTY EVALUATION ......
 STEP CPU TIME =     0.00 TOTAL CPU TIME =        0.3 (    0.0 MIN)
 TOTAL WALL CLOCK TIME=        0.4 SECONDS, CPU UTILIZATION IS  82.86%
               580000  WORDS OF DYNAMIC MEMORY USED
 EXECUTION OF GAMESS TERMINATED NORMALLY Thu Jan 17 17:46:05 2019
 DDI: 263640 bytes (0.3 MB / 0 MWords) used by master data server.

 ----------------------------------------
 CPU timing information for all processes
 ========================================
 0: 0.233 + 0.60 = 0.293
 1: 0.10 + 0.48 = 0.59
 ----------------------------------------
 ddikick.x: exited gracefully.
unset echo
----- accounting info -----
Files used on the master node bach.ad64.riken.go.jp were:
-rw-------  1 maho  staff      280  1 17 17:46 .//LiH.631g/1.7/LiH.631g.fullCI.1.7.gamess.F05
-rw-r--r--  1 maho  staff   180016  1 17 17:46 .//LiH.631g/1.7/LiH.631g.fullCI.1.7.gamess.F08
-rw-r--r--  1 maho  staff   181704  1 17 17:46 .//LiH.631g/1.7/LiH.631g.fullCI.1.7.gamess.F09
-rw-r--r--  1 maho  staff  1832320  1 17 17:46 .//LiH.631g/1.7/LiH.631g.fullCI.1.7.gamess.F10
-rw-r--r--  1 maho  staff    78640  1 17 17:46 .//LiH.631g/1.7/LiH.631g.fullCI.1.7.gamess.F12
-rw-r--r--  1 maho  staff    14499  1 17 17:46 .//LiH.631g/1.7/LiH.631g.fullCI.1.7.gamess.dat
-rw-------  1 maho  staff      280  1 17 17:46 .//LiH.631g/1.7/LiH.631g.fullCI.1.7.gamess.inp
-rw-r--r--  1 maho  staff    42514  1 17 17:46 .//LiH.631g/1.7/LiH.631g.fullCI.1.7.gamess.log
ls: No match.
ls: No match.
ls: No match.
2019年 1月17日 木曜日 17時46分08秒 JST
0.357u 0.221s 0:03.59 15.8%	0+0k 0+0io 0pf+0w
