----- GAMESS execution script 'rungms' -----
This job is running on host bach.ad64.riken.go.jp
under operating system Darwin at 2019年 1月17日 木曜日 17時53分35秒 JST
Available scratch disk space (Kbyte units) at beginning of the job is
Filesystem   1024-blocks       Used Available Capacity iused      ifree %iused  Mounted on
/dev/disk2s2  1953178672 1144747348 808431324    59%  984664 4293982615    0%   /Volumes/Users
GAMESS temporary binary files will be written to ./
GAMESS supplementary output files will be written to ./
Copying input file LiH.631g/4.8/LiH.631g.fullCI.4.8.gamess.inp to your run's scratch directory...
cp LiH.631g/4.8/LiH.631g.fullCI.4.8.gamess.inp .//LiH.631g/4.8/LiH.631g.fullCI.4.8.gamess.F05
unset echo
/Volumes/Users/maho/bin/gamess//ddikick.x /Volumes/Users/maho/bin/gamess//gamess.00.x LiH.631g/4.8/LiH.631g.fullCI.4.8.gamess -ddi 1 1 bach.ad64.riken.go.jp -scr ./

 Distributed Data Interface kickoff program.
 Initiating 1 compute processes on 1 nodes to run the following command:
 /Volumes/Users/maho/bin/gamess//gamess.00.x LiH.631g/4.8/LiH.631g.fullCI.4.8.gamess 

          ******************************************************
          *         GAMESS VERSION = 18 AUG 2016 (R1)          *
          *             FROM IOWA STATE UNIVERSITY             *
          * M.W.SCHMIDT, K.K.BALDRIDGE, J.A.BOATZ, S.T.ELBERT, *
          *   M.S.GORDON, J.H.JENSEN, S.KOSEKI, N.MATSUNAGA,   *
          *          K.A.NGUYEN, S.J.SU, T.L.WINDUS,           *
          *       TOGETHER WITH M.DUPUIS, J.A.MONTGOMERY       *
          *         J.COMPUT.CHEM.  14, 1347-1363(1993)        *
          **************** 64 BIT APPLE VERSION ****************

  SINCE 1993, STUDENTS AND POSTDOCS WORKING AT IOWA STATE UNIVERSITY
  AND ALSO IN THEIR VARIOUS JOBS AFTER LEAVING ISU HAVE MADE IMPORTANT
  CONTRIBUTIONS TO THE CODE:
     IVANA ADAMOVIC, CHRISTINE AIKENS, YURI ALEXEEV, POOJA ARORA,
     ANDREY ASADCHEV, ROB BELL, PRADIPTA BANDYOPADHYAY, JONATHAN BENTZ,
     BRETT BODE, KURT BRORSEN, CALEB CARLIN, GALINA CHABAN, WEI CHEN,
     CHEOL HO CHOI, PAUL DAY, ALBERT DEFUSCO, NUWAN DESILVA, TIM DUDLEY,
     DMITRI FEDOROV, GRAHAM FLETCHER, MARK FREITAG, KURT GLAESEMANN,
     DAN KEMP, GRANT MERRILL, NORIYUKI MINEZAWA, JONATHAN MULLIN,
     TAKESHI NAGATA, SEAN NEDD, HEATHER NETZLOFF, BOSILJKA NJEGIC, RYAN OLSON,
     MIKE PAK, SPENCER PRUITT, LUKE ROSKOP, JIM SHOEMAKER, LYUDMILA SLIPCHENKO,
     TONY SMITH, SAROM SOK LEANG, JIE SONG, TETSUYA TAKETSUGU, SIMON WEBB,
     PENG XU, SOOHAENG YOO, FEDERICO ZAHARIEV

  ADDITIONAL CODE HAS BEEN PROVIDED BY COLLABORATORS IN OTHER GROUPS:
     IOWA STATE UNIVERSITY:
          JOE IVANIC, AARON WEST, LAIMUTIS BYTAUTAS, KLAUS RUEDENBERG
     UNIVERSITY OF TOKYO: KIMIHIKO HIRAO, TAKAHITO NAKAJIMA,
          TAKAO TSUNEDA, MUNEAKI KAMIYA, SUSUMU YANAGISAWA,
          KIYOSHI YAGI, MAHITO CHIBA, SEIKEN TOKURA, NAOAKI KAWAKAMI
     UNIVERSITY OF AARHUS: FRANK JENSEN
     UNIVERSITY OF IOWA: VISVALDAS KAIRYS, HUI LI
     NATIONAL INST. OF STANDARDS AND TECHNOLOGY: WALT STEVENS, DAVID GARMER
     UNIVERSITY OF PISA: BENEDETTA MENNUCCI, JACOPO TOMASI
     UNIVERSITY OF MEMPHIS: HENRY KURTZ, PRAKASHAN KORAMBATH
     UNIVERSITY OF ALBERTA: TOBY ZENG, MARIUSZ KLOBUKOWSKI
     UNIVERSITY OF NEW ENGLAND: MARK SPACKMAN
     MIE UNIVERSITY: HIROAKI UMEDA
     NAT. INST. OF ADVANCED INDUSTRIAL SCIENCE AND TECHNOLOGY: KAZUO KITAURA
     MICHIGAN STATE UNIVERSITY:
          KAROL KOWALSKI, MARTA WLOCH, JEFFREY GOUR, JESSE LUTZ,
          WEI LI, PIOTR PIECUCH
     UNIVERSITY OF SILESIA: MONIKA MUSIAL, STANISLAW KUCHARSKI
     FACULTES UNIVERSITAIRES NOTRE-DAME DE LA PAIX:
          OLIVIER QUINET, BENOIT CHAMPAGNE
     UNIVERSITY OF CALIFORNIA - SANTA BARBARA: BERNARD KIRTMAN
     INSTITUTE FOR MOLECULAR SCIENCE:
          KAZUYA ISHIMURA, MICHIO KATOUDA, AND SHIGERU NAGASE
     UNIVERSITY OF NOTRE DAME: ANNA POMOGAEVA, DAN CHIPMAN
     KYUSHU UNIVERSITY:
          HARUYUKI NAKANO,
          FENG LONG GU, JACEK KORCHOWIEC, MARCIN MAKOWSKI, AND YURIKO AOKI,
          HIROTOSHI MORI AND EISAKU MIYOSHI
     PENNSYLVANIA STATE UNIVERSITY:
          TZVETELIN IORDANOV, CHET SWALINA, JONATHAN SKONE,
          SHARON HAMMES-SCHIFFER
     WASEDA UNIVERSITY:
          MASATO KOBAYASHI, TOMOKO AKAMA, TSUGUKI TOUMA,
          TAKESHI YOSHIKAWA, YASUHIRO IKABATA, JUNJI SEINO,
          YUYA NAKAJIMA, HIROMI NAKAI
     NANJING UNIVERSITY: SHUHUA LI
     UNIVERSITY OF NEBRASKA:
          PEIFENG SU, DEJUN SI, NANDUN THELLAMUREGE, YALI WANG, HUI LI
     UNIVERSITY OF ZURICH: ROBERTO PEVERATI, KIM BALDRIDGE
     N. COPERNICUS UNIVERSITY AND JACKSON STATE UNIVERSITY:
          MARIA BARYSZ
     UNIVERSITY OF COPENHAGEN: Jimmy Kromann, CASPER STEINMANN
     TOKYO INSTITUTE OF TECHNOLOGY: HIROYA NAKATA
     NAGOYA UNIVERSITY: YOSHIO NISHIMOTO, STEPHAN IRLE
     MOSCOW STATE UNIVERSITY: VLADIMIR MIRONOV

 EXECUTION OF GAMESS BEGUN Thu Jan 17 17:53:35 2019

            ECHO OF THE FIRST FEW INPUT CARDS -
 INPUT CARD> $CONTRL SCFTYP=RHF CITYP=ALDET $END                                            
 INPUT CARD> $GUESS  GUESS=HUCKEL $END                                                      
 INPUT CARD> $BASIS GBASIS=N31 NGAUSS=6 NDFUNC=1 NPFUNC=1 $END                              
 INPUT CARD> $CIDET SZ=0 GROUP=C2V NCORE=0 NACT=20 NELS=4 $END                              
 INPUT CARD> $DATA                                                                          
 INPUT CARD>LiH...HF...6-31G* basis                                                         
 INPUT CARD>Cnv   2                                                                         
 INPUT CARD>                                                                                
 INPUT CARD>Li    3.0    0.0      0.0     0.0                                               
 INPUT CARD>H     1.0    0.0      0.0     4.8                                               
 INPUT CARD> $END                                                                           
    1000000 WORDS OF MEMORY AVAILABLE

     BASIS OPTIONS
     -------------
     GBASIS=N31          IGAUSS=       6      POLAR=POPN31  
     NDFUNC=       1     NFFUNC=       0     DIFFSP=       F
     NPFUNC=       1      DIFFS=       F     BASNAM=        


     RUN TITLE
     ---------
 LiH...HF...6-31G* basis                                                         

 THE POINT GROUP OF THE MOLECULE IS CNV     
 THE ORDER OF THE PRINCIPAL AXIS IS     2

 ATOM      ATOMIC                      COORDINATES (BOHR)
           CHARGE         X                   Y                   Z
 LI          3.0     0.0000000000        0.0000000000        0.0000000000
 H           1.0     0.0000000000        0.0000000000        9.0706847411

          INTERNUCLEAR DISTANCES (ANGS.)
          ------------------------------

                1 LI         2 H     

   1 LI      0.0000000    4.8000000  
   2 H       4.8000000    0.0000000  

  * ... LESS THAN  3.000


     ATOMIC BASIS SET
     ----------------
 THE CONTRACTED PRIMITIVE FUNCTIONS HAVE BEEN UNNORMALIZED
 THE CONTRACTED BASIS FUNCTIONS ARE NOW NORMALIZED TO UNITY

  SHELL TYPE  PRIMITIVE        EXPONENT          CONTRACTION COEFFICIENT(S)

 LI        

      1   S       1           642.4189150    0.002142607810
      1   S       2            96.7985153    0.016208871501
      1   S       3            22.0911212    0.077315572504
      1   S       4             6.2010702    0.245786052013
      1   S       5             1.9351177    0.470189004025
      1   S       6             0.6367358    0.345470845019

      2   L       7             2.3249184   -0.035091745735    0.008941508043
      2   L       8             0.6324304   -0.191232843103    0.141009464046
      2   L       9             0.0790534    1.083987794916    0.945363695309

      3   L      10             0.0359620    1.000000000000    1.000000000000

      4   D      11             0.2000000    1.000000000000

 H         

      5   S      12            18.7311370    0.033494604338
      5   S      13             2.8253944    0.234726953484
      5   S      14             0.6401217    0.813757326146

      6   S      15             0.1612778    1.000000000000

      7   P      16             1.1000000    1.000000000000

 TOTAL NUMBER OF BASIS SET SHELLS             =    7
 NUMBER OF CARTESIAN GAUSSIAN BASIS FUNCTIONS =   20
 NUMBER OF ELECTRONS                          =    4
 CHARGE OF MOLECULE                           =    0
 SPIN MULTIPLICITY                            =    1
 NUMBER OF OCCUPIED ORBITALS (ALPHA)          =    2
 NUMBER OF OCCUPIED ORBITALS (BETA )          =    2
 TOTAL NUMBER OF ATOMS                        =    2
 THE NUCLEAR REPULSION ENERGY IS        0.3307357808

 THIS MOLECULE IS RECOGNIZED AS BEING LINEAR,
 ORBITAL LZ DEGENERACY TOLERANCE ETOLLZ= 1.00E-06

     $CONTRL OPTIONS
     ---------------
 SCFTYP=RHF          RUNTYP=ENERGY       EXETYP=RUN     
 MPLEVL=       0     CITYP =ALDET        CCTYP =NONE         VBTYP =NONE    
 DFTTYP=NONE         TDDFT =NONE    
 MULT  =       1     ICHARG=       0     NZVAR =       0     COORD =UNIQUE  
 PP    =NONE         RELWFN=NONE         LOCAL =NONE         NUMGRD=       F
 ISPHER=      -1     NOSYM =       0     MAXIT =      30     UNITS =ANGS    
 PLTORB=       F     MOLPLT=       F     AIMPAC=       F     FRIEND=        
 NPRINT=       7     IREST =       0     GEOM  =INPUT   
 NORMF =       0     NORMP =       0     ITOL  =      20     ICUT  =       9
 INTTYP=BEST         GRDTYP=BEST         QMTTOL= 1.0E-06

     $SYSTEM OPTIONS
     ---------------
  REPLICATED MEMORY=     1000000 WORDS (ON EVERY NODE).
 DISTRIBUTED MEMDDI=           0 MILLION WORDS IN AGGREGATE,
 MEMDDI DISTRIBUTED OVER   1 PROCESSORS IS           0 WORDS/PROCESSOR.
 TOTAL MEMORY REQUESTED ON EACH PROCESSOR=     1000000 WORDS.
 TIMLIM=      525600.00 MINUTES, OR     365.0 DAYS.
 PARALL= F  BALTYP=  DLB     KDIAG=    0  COREFL= F
 MXSEQ2=     300 MXSEQ3=     150  mem10=         0

          ----------------
          PROPERTIES INPUT
          ----------------

     MOMENTS            FIELD           POTENTIAL          DENSITY
 IEMOM =       1   IEFLD =       0   IEPOT =       0   IEDEN =       0
 WHERE =COMASS     WHERE =NUCLEI     WHERE =NUCLEI     WHERE =NUCLEI  
 OUTPUT=BOTH       OUTPUT=BOTH       OUTPUT=BOTH       OUTPUT=BOTH    
 IEMINT=       0   IEFINT=       0                     IEDINT=       0
                                                       MORB  =       0
          EXTRAPOLATION IN EFFECT
          SOSCF IN EFFECT
 ORBITAL PRINTING OPTION: NPREO=     1    20     2     1

     -------------------------------
     INTEGRAL TRANSFORMATION OPTIONS
     -------------------------------
     NWORD  =            0
     CUTOFF = 1.0E-09     MPTRAN =       0
     DIRTRF =       F     AOINTS =DUP     

          ----------------------
          INTEGRAL INPUT OPTIONS
          ----------------------
 NOPK  =       1 NORDER=       0 SCHWRZ=       F

     ------------------------------------------
     THE POINT GROUP IS CNV, NAXIS= 2, ORDER= 4
     ------------------------------------------

     DIMENSIONS OF THE SYMMETRY SUBSPACES ARE
 A1  =   11     A2  =    1     B1  =    4     B2  =    4

 ..... DONE SETTING UP THE RUN .....
 STEP CPU TIME =     0.00 TOTAL CPU TIME =        0.0 (    0.0 MIN)
 TOTAL WALL CLOCK TIME=        0.0 SECONDS, CPU UTILIZATION IS   0.00%

          ********************
          1 ELECTRON INTEGRALS
          ********************
 ...... END OF ONE-ELECTRON INTEGRALS ......
 STEP CPU TIME =     0.00 TOTAL CPU TIME =        0.0 (    0.0 MIN)
 TOTAL WALL CLOCK TIME=        0.0 SECONDS, CPU UTILIZATION IS   0.00%

          -------------
          GUESS OPTIONS
          -------------
          GUESS =HUCKEL            NORB  =       0          NORDER=       0
          MIX   =       F          PRTMO =       F          PUNMO =       F
          TOLZ  = 1.0E-08          TOLE  = 1.0E-05
          SYMDEN=       F          PURIFY=       F

 INITIAL GUESS ORBITALS GENERATED BY HUCKEL   ROUTINE.
 HUCKEL GUESS REQUIRES      4469 WORDS.

 SYMMETRIES FOR INITIAL GUESS ORBITALS FOLLOW.   BOTH SET(S).
     2 ORBITALS ARE OCCUPIED (    1 CORE ORBITALS).
     2=A1       3=A1       4=A1       5=A1       6=A1       7=A1       8=A1  
     9=A1      10=A1      11=A1      12=A2  
 ...... END OF INITIAL ORBITAL SELECTION ......
 STEP CPU TIME =     0.00 TOTAL CPU TIME =        0.0 (    0.0 MIN)
 TOTAL WALL CLOCK TIME=        0.0 SECONDS, CPU UTILIZATION IS   0.00%

                    ----------------------
                    AO INTEGRAL TECHNOLOGY
                    ----------------------
     S,P,L SHELL ROTATED AXIS INTEGRALS, REPROGRAMMED BY
        KAZUYA ISHIMURA (IMS) AND JOSE SIERRA (SYNSTAR).
     S,P,D,L SHELL ROTATED AXIS INTEGRALS PROGRAMMED BY
        KAZUYA ISHIMURA (INSTITUTE FOR MOLECULAR SCIENCE).
     S,P,D,F,G SHELL TO TOTAL QUARTET ANGULAR MOMENTUM SUM 5,
        ERIC PROGRAM BY GRAHAM FLETCHER (ELORET AND NASA ADVANCED
        SUPERCOMPUTING DIVISION, AMES RESEARCH CENTER).
     S,P,D,F,G,L SHELL GENERAL RYS QUADRATURE PROGRAMMED BY
        MICHEL DUPUIS (PACIFIC NORTHWEST NATIONAL LABORATORY).

          --------------------
          2 ELECTRON INTEGRALS
          --------------------

 THE -PK- OPTION IS OFF, THE INTEGRALS ARE NOT IN SUPERMATRIX FORM.
 STORING   15000 INTEGRALS/RECORD ON DISK, USING 12 BYTES/INTEGRAL.
 TWO ELECTRON INTEGRAL EVALUATION REQUIRES   90424 WORDS OF MEMORY.
 II,JST,KST,LST =  1  1  1  1 NREC =         1 INTLOC =    1
 II,JST,KST,LST =  2  1  1  1 NREC =         1 INTLOC =    2
 II,JST,KST,LST =  3  1  1  1 NREC =         1 INTLOC =   34
 II,JST,KST,LST =  4  1  1  1 NREC =         1 INTLOC =  214
 II,JST,KST,LST =  5  1  1  1 NREC =         1 INTLOC = 1189
 II,JST,KST,LST =  6  1  1  1 NREC =         1 INTLOC = 1774
 II,JST,KST,LST =  7  1  1  1 NREC =         1 INTLOC = 2597
 TOTAL NUMBER OF NONZERO TWO-ELECTRON INTEGRALS =                4841
          1 INTEGRAL RECORDS WERE STORED ON DISK FILE  8.
  ...... END OF TWO-ELECTRON INTEGRALS .....
 STEP CPU TIME =     0.02 TOTAL CPU TIME =        0.0 (    0.0 MIN)
 TOTAL WALL CLOCK TIME=        0.0 SECONDS, CPU UTILIZATION IS  66.67%

          --------------------------
                 RHF SCF CALCULATION
          --------------------------

     NUCLEAR ENERGY =         0.3307357808
     MAXIT =   30     NPUNCH=    2
     EXTRAP=T  DAMP=F  SHIFT=F  RSTRCT=F  DIIS=F  DEM=F  SOSCF=T
     DENSITY MATRIX CONV=  1.00E-06
     SOSCF WILL OPTIMIZE      36 ORBITAL ROTATIONS, SOGTOL=   0.250
     MEMORY REQUIRED FOR RHF ITERS=     33224 WORDS.

 ITER EX DEM     TOTAL ENERGY        E CHANGE  DENSITY CHANGE     ORB. GRAD
   1  0  0       -7.4868339731    -7.4868339731   1.043971566   0.000000000
          ---------------START SECOND ORDER SCF---------------
 SOSCF IS SCALING ROTATION ANGLE MATRIX, SQCDF=    0.102718
   2  1  0       -7.4537842876     0.0330496855   0.877142959   0.053965335
 SOSCF IS SCALING ROTATION ANGLE MATRIX, SQCDF=    0.163589
   3  2  0       -7.5413682304    -0.0875839428   0.872573424   0.082743756
 SOSCF IS SCALING ROTATION ANGLE MATRIX, SQCDF=    7.542872
   4  3  0       -7.6829199562    -0.1415517258   1.971694236   0.116093587
 SOSCF IS SCALING ROTATION ANGLE MATRIX, SQCDF=    0.124941
   5  4  0       -7.6641511746     0.0187687816   0.581614578   0.091885547
 SOSCF IS SCALING ROTATION ANGLE MATRIX, SQCDF=    0.161339
   6  5  0       -7.7147801181    -0.0506289435   2.750253974   0.091193106
   7  6  0       -7.7326873233    -0.0179072052   2.168671603   0.057524892
   8  7  0       -7.7826417159    -0.0499543926   1.317040149   0.043806194
   9  8  0       -7.7941147429    -0.0114730270   0.176034766   0.034874070
  10  9  0       -7.8049721875    -0.0108574445   0.183479208   0.020307111
 SOSCF IS SCALING ROTATION ANGLE MATRIX, SQCDF=    0.143153
  11 10  0       -7.8135496644    -0.0085774770   0.574010519   0.008930083
  12 11  0       -7.7823114513     0.0312382131   0.527208150   0.069539877
  13 12  0       -7.8190453830    -0.0367339316   0.145752279   0.011035012
  14 13  0       -7.8251057173    -0.0060603344   0.301500156   0.010208649
  15 14  0       -7.8031009079     0.0220048095   0.275401952   0.054223767
  16 15  0       -7.8273779381    -0.0242770303   0.029603044   0.005573602
  17 16  0       -7.8283894138    -0.0010114757   0.041298502   0.003442099
  18 17  0       -7.8286950778    -0.0003056640   0.009871906   0.001086246
  19 18  0       -7.8287247006    -0.0000296229   0.003662533   0.000406623
  20 19  0       -7.8287259479    -0.0000012473   0.003256800   0.000224732
  21 20  0       -7.8287263539    -0.0000004059   0.000214005   0.000021687
  22 21  0       -7.8287263623    -0.0000000084   0.000045403   0.000003697
  23 22  0       -7.8287263627    -0.0000000004   0.000009065   0.000000502
  24 23  0       -7.8287263627    -0.0000000000   0.000001658   0.000000121
  25 24  0       -7.8287263627    -0.0000000000   0.000000118   0.000000016

          -----------------
          DENSITY CONVERGED
          -----------------
     TIME TO FORM FOCK OPERATORS=       0.0 SECONDS (       0.0 SEC/ITER)
     TIME TO SOLVE SCF EQUATIONS=       0.0 SECONDS (       0.0 SEC/ITER)

 FINAL RHF ENERGY IS       -7.8287263627 AFTER  25 ITERATIONS

 LZ VALUE ANALYSIS FOR THE MOS
 ----------------------------------------
 MO     1 (    1) HAS LZ(WEIGHT)= 0.00(100.0%) 
 MO     2 (    2) HAS LZ(WEIGHT)= 0.00(100.0%) 
 MO     3 (    3) HAS LZ(WEIGHT)= 0.00(100.0%) 
 MO     4 (    4) HAS LZ(WEIGHT)=-1.00( 50.0%)  1.00( 50.0%) 
 MO     5 (    4) HAS LZ(WEIGHT)=-1.00( 50.0%)  1.00( 50.0%) 
 MO     6 (    5) HAS LZ(WEIGHT)= 0.00(100.0%) 
 MO     7 (    6) HAS LZ(WEIGHT)= 0.00(100.0%) 
 MO     8 (    7) HAS LZ(WEIGHT)=-1.00( 50.0%)  1.00( 50.0%) 
 MO     9 (    7) HAS LZ(WEIGHT)=-1.00( 50.0%)  1.00( 50.0%) 
 MO    10 (    8) HAS LZ(WEIGHT)= 0.00(100.0%) 
 MO    11 (    9) HAS LZ(WEIGHT)=-2.00( 50.0%)  2.00( 50.0%) 
 MO    12 (    9) HAS LZ(WEIGHT)=-2.00( 50.0%)  2.00( 50.0%) 
 MO    13 (   10) HAS LZ(WEIGHT)=-1.00( 50.0%)  1.00( 50.0%) 
 MO    14 (   10) HAS LZ(WEIGHT)=-1.00( 50.0%)  1.00( 50.0%) 
 MO    15 (   11) HAS LZ(WEIGHT)= 0.00(100.0%) 
 MO    16 (   12) HAS LZ(WEIGHT)= 0.00(100.0%) 
 MO    17 (   13) HAS LZ(WEIGHT)= 0.00(100.0%) 
 MO    18 (   14) HAS LZ(WEIGHT)=-1.00( 50.0%)  1.00( 50.0%) 
 MO    19 (   14) HAS LZ(WEIGHT)=-1.00( 50.0%)  1.00( 50.0%) 
 MO    20 (   15) HAS LZ(WEIGHT)= 0.00(100.0%) 

          ------------
          EIGENVECTORS
          ------------

                      1          2          3          4          5
                   -2.5869    -0.1780    -0.0536     0.0189     0.0189
                     A1         A1         A1         B2         B1  
    1  LI 1  S    0.998768  -0.096196  -0.161444  -0.000000  -0.000000
    2  LI 1  S   -0.012171  -0.077075   0.115971  -0.000000  -0.000000
    3  LI 1  X    0.000000   0.000000  -0.000000  -0.000000   0.242964
    4  LI 1  Y    0.000000   0.000000  -0.000000   0.242964  -0.000000
    5  LI 1  Z   -0.002073  -0.036442  -0.063777  -0.000000  -0.000000
    6  LI 1  S    0.001870   0.502506   0.692993  -0.000000  -0.000000
    7  LI 1  X    0.000000   0.000000  -0.000000  -0.000000   0.794320
    8  LI 1  Y    0.000000   0.000000  -0.000000   0.794320  -0.000000
    9  LI 1  Z    0.001383   0.209039  -0.276517  -0.000000  -0.000000
   10  LI 1 XX    0.008758   0.033909   0.033679  -0.000000  -0.000000
   11  LI 1 YY    0.008758   0.033909   0.033679  -0.000000  -0.000000
   12  LI 1 ZZ    0.008666   0.040970   0.030993  -0.000000  -0.000000
   13  LI 1 XY    0.000000   0.000000  -0.000000  -0.000000  -0.000000
   14  LI 1 XZ    0.000000   0.000000  -0.000000  -0.000000  -0.020921
   15  LI 1 YZ    0.000000   0.000000  -0.000000  -0.020921  -0.000000
   16  H  2  S    0.000047   0.238601  -0.119840  -0.000000  -0.000000
   17  H  2  S   -0.000176   0.622166  -0.321189  -0.000000  -0.000000
   18  H  2  X    0.000000   0.000000  -0.000000  -0.000000   0.000697
   19  H  2  Y    0.000000   0.000000  -0.000000   0.000697  -0.000000
   20  H  2  Z    0.000010  -0.001057  -0.000758  -0.000000  -0.000000

                      6          7          8          9         10
                    0.0419     0.1484     0.1632     0.1632     0.2047
                     A1         A1         B1         B2         A1  
    1  LI 1  S   -0.030371   0.060327  -0.000000  -0.000000   0.057976
    2  LI 1  S    0.423104   2.392672  -0.000000  -0.000000   2.140022
    3  LI 1  X   -0.000000  -0.000000   1.655666  -0.000000   0.000000
    4  LI 1  Y   -0.000000  -0.000000  -0.000000   1.655666   0.000000
    5  LI 1  Z    0.315343  -1.135603  -0.000000  -0.000000   1.217213
    6  LI 1  S   -0.132946  -1.864360  -0.000000  -0.000000  -1.705775
    7  LI 1  X   -0.000000  -0.000000  -1.473658  -0.000000   0.000000
    8  LI 1  Y   -0.000000  -0.000000  -0.000000  -1.473658   0.000000
    9  LI 1  Z    0.657258   0.963281  -0.000000  -0.000000  -1.214533
   10  LI 1 XX   -0.009804  -0.233330  -0.000000  -0.000000  -0.170613
   11  LI 1 YY   -0.009804  -0.233330  -0.000000  -0.000000  -0.170613
   12  LI 1 ZZ   -0.060924  -0.197696  -0.000000  -0.000000  -0.207416
   13  LI 1 XY   -0.000000  -0.000000  -0.000000  -0.000000   0.000000
   14  LI 1 XZ   -0.000000  -0.000000  -0.031286  -0.000000   0.000000
   15  LI 1 YZ   -0.000000  -0.000000  -0.000000  -0.031286   0.000000
   16  H  2  S   -0.095709   0.007291  -0.000000  -0.000000   0.051195
   17  H  2  S   -0.330729  -0.030369  -0.000000  -0.000000   0.266983
   18  H  2  X   -0.000000  -0.000000  -0.000816  -0.000000   0.000000
   19  H  2  Y   -0.000000  -0.000000  -0.000000  -0.000816   0.000000
   20  H  2  Z   -0.002406   0.000507  -0.000000  -0.000000   0.003093

                     11         12         13         14         15
                    0.4958     0.4958     0.4994     0.4994     0.5013
                     A1         A2         B1         B2         A1  
    1  LI 1  S   -0.000000   0.000000  -0.000000  -0.000000  -0.000628
    2  LI 1  S   -0.000000   0.000000  -0.000000  -0.000000   0.023905
    3  LI 1  X   -0.000000   0.000000   0.056925  -0.000000   0.000000
    4  LI 1  Y   -0.000000   0.000000  -0.000000   0.056925   0.000000
    5  LI 1  Z   -0.000000   0.000000  -0.000000  -0.000000   0.067802
    6  LI 1  S   -0.000000   0.000000  -0.000000  -0.000000  -0.007770
    7  LI 1  X   -0.000000   0.000000  -0.029510  -0.000000   0.000000
    8  LI 1  Y   -0.000000   0.000000  -0.000000  -0.029510   0.000000
    9  LI 1  Z   -0.000000   0.000000  -0.000000  -0.000000  -0.032086
   10  LI 1 XX   -0.866025   0.000000  -0.000000  -0.000000  -0.503860
   11  LI 1 YY    0.866025   0.000000  -0.000000  -0.000000  -0.503860
   12  LI 1 ZZ   -0.000000   0.000000  -0.000000  -0.000000   0.994246
   13  LI 1 XY   -0.000000   1.000000  -0.000000  -0.000000   0.000000
   14  LI 1 XZ   -0.000000   0.000000   0.999291  -0.000000   0.000000
   15  LI 1 YZ   -0.000000   0.000000  -0.000000   0.999291   0.000000
   16  H  2  S   -0.000000   0.000000  -0.000000  -0.000000  -0.016771
   17  H  2  S   -0.000000   0.000000  -0.000000  -0.000000  -0.000340
   18  H  2  X   -0.000000   0.000000   0.000139  -0.000000   0.000000
   19  H  2  Y   -0.000000   0.000000  -0.000000   0.000139   0.000000
   20  H  2  Z   -0.000000   0.000000  -0.000000  -0.000000  -0.000440

                     16         17         18         19         20
                    1.1405     1.1930     2.4668     2.4668     2.4705
                     A1         A1         B1         B2         A1  
    1  LI 1  S    0.092860   0.070848  -0.000000  -0.000000  -0.005218
    2  LI 1  S    7.998099   5.113747  -0.000000  -0.000000  -0.231825
    3  LI 1  X    0.000000   0.000000   0.009384  -0.000000  -0.000000
    4  LI 1  Y    0.000000   0.000000  -0.000000   0.009384  -0.000000
    5  LI 1  Z   -0.040342   0.131902  -0.000000  -0.000000  -0.038328
    6  LI 1  S   -2.426374  -1.714490  -0.000000  -0.000000   0.106938
    7  LI 1  X    0.000000   0.000000  -0.012472  -0.000000  -0.000000
    8  LI 1  Y    0.000000   0.000000  -0.000000  -0.012472  -0.000000
    9  LI 1  Z    0.069490  -0.199442  -0.000000  -0.000000   0.055666
   10  LI 1 XX   -2.683762  -1.644975  -0.000000  -0.000000   0.063259
   11  LI 1 YY   -2.683762  -1.644975  -0.000000  -0.000000   0.063259
   12  LI 1 ZZ   -2.674780  -1.665066  -0.000000  -0.000000   0.064151
   13  LI 1 XY    0.000000   0.000000  -0.000000  -0.000000  -0.000000
   14  LI 1 XZ    0.000000   0.000000  -0.000152  -0.000000  -0.000000
   15  LI 1 YZ    0.000000   0.000000  -0.000000  -0.000152  -0.000000
   16  H  2  S    0.649801  -1.133966  -0.000000  -0.000000   0.009988
   17  H  2  S   -0.484988   1.008589  -0.000000  -0.000000  -0.019537
   18  H  2  X    0.000000   0.000000   1.000020  -0.000000  -0.000000
   19  H  2  Y    0.000000   0.000000  -0.000000   1.000020  -0.000000
   20  H  2  Z    0.004558   0.006684  -0.000000  -0.000000   1.000559
 ...... END OF RHF CALCULATION ......
 STEP CPU TIME =     0.01 TOTAL CPU TIME =        0.0 (    0.0 MIN)
 TOTAL WALL CLOCK TIME=        0.1 SECONDS, CPU UTILIZATION IS  25.00%

     ----------------------------------------------------------------
     PROPERTY VALUES FOR THE RHF   SELF-CONSISTENT FIELD WAVEFUNCTION
     ----------------------------------------------------------------

          -----------------
          ENERGY COMPONENTS
          -----------------

         WAVEFUNCTION NORMALIZATION =       1.0000000000

                ONE ELECTRON ENERGY =     -10.7892503014
                TWO ELECTRON ENERGY =       2.6297881580
           NUCLEAR REPULSION ENERGY =       0.3307357808
                                      ------------------
                       TOTAL ENERGY =      -7.8287263627

 ELECTRON-ELECTRON POTENTIAL ENERGY =       2.6297881580
  NUCLEUS-ELECTRON POTENTIAL ENERGY =     -18.6135233240
   NUCLEUS-NUCLEUS POTENTIAL ENERGY =       0.3307357808
                                      ------------------
             TOTAL POTENTIAL ENERGY =     -15.6529993852
               TOTAL KINETIC ENERGY =       7.8242730225
                 VIRIAL RATIO (V/T) =       2.0005691698

  ...... PI ENERGY ANALYSIS ......

 ENERGY ANALYSIS:
            FOCK ENERGY=     -5.5296739968
          BARE H ENERGY=    -10.7892503014
     ELECTRONIC ENERGY =     -8.1594621491
         KINETIC ENERGY=      7.8242730225
          N-N REPULSION=      0.3307357808
           TOTAL ENERGY=     -7.8287263684
        SIGMA PART(1+2)=     -8.1594621491
               (K,V1,2)=      7.8242730225    -18.6135233240      2.6297881523
           PI PART(1+2)=      0.0000000000
               (K,V1,2)=      0.0000000000      0.0000000000      0.0000000000
  SIGMA SKELETON, ERROR=     -7.8287263684      0.0000000000
             MIXED PART= 0.00000E+00 0.00000E+00 0.00000E+00 0.00000E+00
 ...... END OF PI ENERGY ANALYSIS ......

          ---------------------------------------
          MULLIKEN AND LOWDIN POPULATION ANALYSES
          ---------------------------------------

               ----- POPULATIONS IN EACH AO -----
                             MULLIKEN      LOWDIN
              1  LI 1  S      1.99807     1.98013
              2  LI 1  S     -0.07325     0.10474
              3  LI 1  X      0.00000     0.00000
              4  LI 1  Y      0.00000     0.00000
              5  LI 1  Z     -0.01136     0.00742
              6  LI 1  S      0.52451     0.33218
              7  LI 1  X      0.00000     0.00000
              8  LI 1  Y      0.00000     0.00000
              9  LI 1  Z      0.12466     0.10365
             10  LI 1 XX      0.02176     0.02994
             11  LI 1 YY      0.02176     0.02994
             12  LI 1 ZZ      0.02652     0.03348
             13  LI 1 XY      0.00000     0.00000
             14  LI 1 XZ      0.00000     0.00000
             15  LI 1 YZ      0.00000     0.00000
             16  H  2  S      0.31834     0.39705
             17  H  2  S      1.04896     0.98142
             18  H  2  X      0.00000     0.00000
             19  H  2  Y      0.00000     0.00000
             20  H  2  Z      0.00002     0.00005

          ----- MULLIKEN ATOMIC OVERLAP POPULATIONS -----
          (OFF-DIAGONAL ELEMENTS NEED TO BE MULTIPLIED BY 2)

             1           2

    1    2.5442949
    2    0.0883847   1.2789358

          TOTAL MULLIKEN AND LOWDIN ATOMIC POPULATIONS
       ATOM         MULL.POP.    CHARGE          LOW.POP.     CHARGE
    1 LI            2.632680    0.367320         2.621478    0.378522
    2 H             1.367320   -0.367320         1.378522   -0.378522

          ---------------------
          ELECTROSTATIC MOMENTS
          ---------------------

 POINT   1           X           Y           Z (BOHR)    CHARGE
                 0.000000    0.000000    1.139315        0.00 (A.U.)
         DX          DY          DZ         /D/  (DEBYE)
     0.000000    0.000000  -12.261902   12.261902
 ...... END OF PROPERTY EVALUATION ......
 STEP CPU TIME =     0.01 TOTAL CPU TIME =        0.0 (    0.0 MIN)
 TOTAL WALL CLOCK TIME=        0.1 SECONDS, CPU UTILIZATION IS  33.33%

 DETERMINANT CI OPTIONS   NRNFG   NPFLG
 INTEGRAL TRANSFORMATION    1       0
 DIAGONALIZE HAMILTONIAN    1       0
 FORM 1E- DENSITY MATRIX    1       0
 FORM 2E- DENSITY MATRIX    0       0

     --------------------------------------------------
          AMES LABORATORY DETERMINANTAL FULL CI
     PROGRAM WRITTEN BY JOE IVANIC AND KLAUS RUEDENBERG
     --------------------------------------------------

 THE POINT GROUP                  =   C2V     
 THE STATE SYMMETRY               =   A1      
 NUMBER OF CORE ORBITALS          =    0
 NUMBER OF ACTIVE ORBITALS        =   20
 NUMBER OF ALPHA ELECTRONS        =    2 (   2 ACTIVE)
 NUMBER OF BETA ELECTRONS         =    2 (   2 ACTIVE)
 NUMBER OF OCCUPIED ORBITALS      =   20
 NUMBER OF CI STATES REQUESTED    =    1
 NUMBER OF CI STARTING VECTORS    =    1
 MAX. NO. OF CI EXPANSION VECTORS =   10
 SIZE OF INITIAL CI GUESS MATRIX  =  300
 MAX. NO. OF CI ITERS/STATE       =  100
 CI DIAGONALIZATION CRITERION     = 1.00E-06
 CI PROPERTIES WILL BE FOUND FOR ROOT NUMBER   1
 1E- DENSITY MATRIX OPTIONS ARE 1

 CORRELATION ENERGY ANALYSIS      =    F

 SYMMETRIES FOR THE   0 CORE,  20 ACTIVE ARE

   ACTIVE= A1    A1    A1    B2    B1    A1    A1    B1    B2    A1  
           A1    A2    B1    B2    A1    A1    A1    B1    B2    A1  

     --------------------------------------------
     PARTIAL TWO ELECTRON INTEGRAL TRANSFORMATION
     --------------------------------------------

 NUMBER OF CORE MOLECULAR ORBITALS     =    0
 NUMBER OF OCCUPIED MOLECULAR ORBITALS =   20
 TOTAL NUMBER OF MOLECULAR ORBITALS    =   20
 TOTAL NUMBER OF ATOMIC ORBITALS       =   20
 THRESHOLD FOR KEEPING TRANSFORMED 2E- INTEGRALS = 1.000E-09
 AO INTEGRALS WILL BE READ IN FROM DISK...

 PLAN A: REQUIREMENTS FOR FULLY IN-MEMORY TRANSFORMATION:
 # OF WORDS AVAILABLE =              1000000
 # OF WORDS NEEDED    =               146042

 CHOOSING IN MEMORY PARTIAL TRANSFORMATION...
 TOTAL NUMBER OF TRANSFORMED 2E- INTEGRALS KEPT =         5962
 ... END OF INTEGRAL TRANSFORMATION ...
 STEP CPU TIME =     0.00 TOTAL CPU TIME =        0.0 (    0.0 MIN)
 TOTAL WALL CLOCK TIME=        0.1 SECONDS, CPU UTILIZATION IS  30.77%

     --------------------------------------------------
          AMES LABORATORY DETERMINANTAL FULL CI
     PROGRAM WRITTEN BY JOE IVANIC AND KLAUS RUEDENBERG
     --------------------------------------------------

 THE NUMBER OF DETERMINANTS HAVING SPACE SYMMETRY A1 
 IN POINT GROUP C2V  WITH SZ=  0.0 IS           9826
 THE DETERMINANT FULL CI REQUIRES          451749 WORDS
 INITIAL CI VECTOR GUESS TIME  :          0.0
 INITIAL FULL CI ITERATION TIME:          0.0

 ITERATION      ENERGY           GRADIENT
     0       -7.9304826956     0.04612763
     1       -7.9308317889     0.00291633
     2       -7.9308347418     0.00096032
     3       -7.9308350182     0.00020239
     4       -7.9308350430     0.00007656
     5       -7.9308350490     0.00004430
     6       -7.9308350508     0.00001832
     7       -7.9308350511     0.00001012
     8       -7.9308350512     0.00000412
     9       -7.9308350512     0.00000137
    10       -7.9308350512     0.00000031

 CONVERGED STATE    1 ENERGY=       -7.9308350512 IN   10 ITERS

 ALL STATES CONVERGED.

 CI EIGENVECTORS WILL BE LABELED IN GROUP=C2V     
 PRINTING CI COEFFICIENTS LARGER THAN 5.000E-02

 STATE   1  ENERGY=        -7.9308350512  S=  0.00  SZ=  0.00  SPACE SYM=A1  

        ALPHA         |        BETA          | CI COEFFICIENT
----------------------|----------------------|---------------
 11000000000000000000 | 11000000000000000000 |   0.6512532543
 10100000000000000000 | 10100000000000000000 |  -0.4705308041
 11000000000000000000 | 10100000000000000000 |  -0.3325205174
 10100000000000000000 | 11000000000000000000 |  -0.3325205174
 10100000000000000000 | 10000100000000000000 |  -0.2255659981
 10000100000000000000 | 10100000000000000000 |  -0.2255659981
 10000100000000000000 | 10000100000000000000 |  -0.0877227844
 11000000000000000000 | 10000000010000000000 |   0.0559730631
 10000000010000000000 | 11000000000000000000 |   0.0559730631
 10100000000000000000 | 10000000000000001000 |   0.0546387023
 10000000000000001000 | 10100000000000000000 |   0.0546387023
 ..... DONE WITH DETERMINANT CI COMPUTATION .....
 STEP CPU TIME =     0.23 TOTAL CPU TIME =        0.3 (    0.0 MIN)
 TOTAL WALL CLOCK TIME=        0.4 SECONDS, CPU UTILIZATION IS  65.85%

     ---------------------------
     ONE PARTICLE DENSITY MATRIX
     ---------------------------

 DENSITY MATRIX WILL BE SAVED FOR   1-TH STATE WITH S= 0.00

 CI EIGENSTATE   1 TOTAL ENERGY =       -7.9308350512

          NATURAL ORBITALS IN ATOMIC ORBITAL BASIS
          ----------------------------------------

                      1          2          3          4          5
                    1.9998     1.1398     0.8600     0.0001     0.0001
                     A1         A1         A1         A1         B1  
    1  LI 1  S    0.998521  -0.129879  -0.135734  -0.003857   0.000000
    2  LI 1  S   -0.006594   0.181434   0.230339  -0.339980   0.000000
    3  LI 1  X   -0.000000  -0.000000   0.000000   0.000000   1.545993
    4  LI 1  Y   -0.000000  -0.000000   0.000000   0.000000   0.000000
    5  LI 1  Z   -0.000131  -0.005800   0.005687   1.436951   0.000000
    6  LI 1  S    0.000472   0.487948   0.485928   0.160421   0.000000
    7  LI 1  X   -0.000000  -0.000000   0.000000   0.000000  -0.856711
    8  LI 1  Y   -0.000000  -0.000000   0.000000   0.000000   0.000000
    9  LI 1  Z    0.000093   0.023812  -0.003466  -0.649419   0.000000
   10  LI 1 XX    0.007654   0.021004   0.018852   0.060565   0.000000
   11  LI 1 YY    0.007654   0.021004   0.018852   0.060565   0.000000
   12  LI 1 ZZ    0.007653   0.022886   0.017562   0.117686   0.000000
   13  LI 1 XY   -0.000000  -0.000000   0.000000   0.000000   0.000000
   14  LI 1 XZ   -0.000000  -0.000000   0.000000   0.000000   0.009777
   15  LI 1 YZ   -0.000000  -0.000000   0.000000   0.000000   0.000000
   16  H  2  S    0.000048   0.294505  -0.311309  -0.064732   0.000000
   17  H  2  S    0.000187   0.468089  -0.467817   0.102153   0.000000
   18  H  2  X   -0.000000  -0.000000   0.000000   0.000000   0.024888
   19  H  2  Y   -0.000000  -0.000000   0.000000   0.000000   0.000000
   20  H  2  Z   -0.000001   0.000006   0.000055  -0.094535   0.000000

                      6          7          8          9         10
                    0.0001     0.0001     0.0000     0.0000     0.0000
                     B2         A1         A1         B2         B1  
    1  LI 1  S    0.000000   0.146968   0.014246   0.000000   0.000000
    2  LI 1  S    0.000000   9.486068   1.172080   0.000000   0.000000
    3  LI 1  X    0.000000   0.000000  -0.000000   0.000000  -0.595563
    4  LI 1  Y    1.545993   0.000000  -0.000000  -0.595563   0.000000
    5  LI 1  Z    0.000000   0.168427  -0.844735   0.000000   0.000000
    6  LI 1  S    0.000000  -3.900351  -0.308316   0.000000   0.000000
    7  LI 1  X    0.000000   0.000000  -0.000000   0.000000   1.307794
    8  LI 1  Y   -0.856711   0.000000  -0.000000   1.307794   0.000000
    9  LI 1  Z    0.000000  -0.194075   1.423598   0.000000   0.000000
   10  LI 1 XX    0.000000  -2.677002  -0.494654   0.000000   0.000000
   11  LI 1 YY    0.000000  -2.677002  -0.494654   0.000000   0.000000
   12  LI 1 ZZ    0.000000  -2.690797  -0.280774   0.000000   0.000000
   13  LI 1 XY    0.000000   0.000000  -0.000000   0.000000   0.000000
   14  LI 1 XZ    0.000000   0.000000  -0.000000   0.000000   0.127424
   15  LI 1 YZ    0.009777   0.000000  -0.000000   0.127424   0.000000
   16  H  2  S    0.000000   0.010412  -0.213787   0.000000   0.000000
   17  H  2  S    0.000000   0.135037   0.008354   0.000000   0.000000
   18  H  2  X    0.000000   0.000000  -0.000000   0.000000   0.404924
   19  H  2  Y    0.024888   0.000000  -0.000000   0.404924   0.000000
   20  H  2  Z    0.000000   0.007242  -0.337188   0.000000   0.000000

                     11         12         13         14         15
                    0.0000     0.0000     0.0000     0.0000     0.0000
                     A1         B1         B2         A1         A1  
    1  LI 1  S   -0.015418  -0.000000  -0.000000  -0.003107   0.000000
    2  LI 1  S   -0.472539  -0.000000  -0.000000  -0.146118  -0.000002
    3  LI 1  X    0.000000   0.242262  -0.000000  -0.000000   0.000000
    4  LI 1  Y    0.000000  -0.000000   0.242262  -0.000000   0.000000
    5  LI 1  Z   -0.159803  -0.000000  -0.000000  -0.257245  -0.000000
    6  LI 1  S    0.226038  -0.000000  -0.000000   0.041261  -0.000000
    7  LI 1  X    0.000000  -0.598498  -0.000000  -0.000000   0.000000
    8  LI 1  Y    0.000000  -0.000000  -0.598498  -0.000000   0.000000
    9  LI 1  Z    0.313549  -0.000000  -0.000000   0.636007   0.000000
   10  LI 1 XX    0.109302  -0.000000  -0.000000   0.227141  -0.866025
   11  LI 1 YY    0.109303  -0.000000  -0.000000   0.227140   0.866026
   12  LI 1 ZZ    0.200583  -0.000000  -0.000000  -0.288729   0.000003
   13  LI 1 XY    0.000000  -0.000000  -0.000000  -0.000000   0.000000
   14  LI 1 XZ    0.000000   0.209333  -0.000000  -0.000000   0.000000
   15  LI 1 YZ    0.000000  -0.000000   0.209333  -0.000000   0.000000
   16  H  2  S    1.232782  -0.000000  -0.000000   0.180334  -0.000000
   17  H  2  S   -1.176587  -0.000000  -0.000000  -0.253387   0.000000
   18  H  2  X    0.000000   0.880948  -0.000000  -0.000000   0.000000
   19  H  2  Y    0.000000  -0.000000   0.880948  -0.000000   0.000000
   20  H  2  Z   -0.193123  -0.000000  -0.000000   0.832607   0.000001

                     16         17         18         19         20
                    0.0000     0.0000     0.0000     0.0000     0.0000
                     A2         B1         B2         A1         A1  
    1  LI 1  S    0.000000   0.000000   0.000000  -0.001666  -0.006665
    2  LI 1  S    0.000000   0.000000   0.000000   0.240686   2.968839
    3  LI 1  X    0.000000   0.010377   0.000000   0.000000   0.000000
    4  LI 1  Y    0.000000   0.000000   0.010377   0.000000   0.000000
    5  LI 1  Z    0.000000   0.000000   0.000000  -0.008778   0.050065
    6  LI 1  S    0.000000   0.000000   0.000000   0.045553   0.334027
    7  LI 1  X    0.000000  -0.034021   0.000000   0.000000   0.000000
    8  LI 1  Y    0.000000   0.000000  -0.034021   0.000000   0.000000
    9  LI 1  Z    0.000000   0.000000   0.000000   0.010467  -0.119741
   10  LI 1 XX    0.000000   0.000000   0.000000  -0.597494  -1.554452
   11  LI 1 YY    0.000000   0.000000   0.000000  -0.597497  -1.554450
   12  LI 1 ZZ    0.000000   0.000000   0.000000   0.781184  -1.714718
   13  LI 1 XY    1.000000   0.000000   0.000000   0.000000   0.000000
   14  LI 1 XZ    0.000000   0.969457   0.000000   0.000000   0.000000
   15  LI 1 YZ    0.000000   0.000000   0.969457   0.000000   0.000000
   16  H  2  S    0.000000   0.000000   0.000000   0.035248   0.066806
   17  H  2  S    0.000000   0.000000   0.000000  -0.042392  -0.087319
   18  H  2  X    0.000000  -0.243697   0.000000   0.000000   0.000000
   19  H  2  Y    0.000000   0.000000  -0.243697   0.000000   0.000000
   20  H  2  Z    0.000000   0.000000   0.000000   0.383793   0.026229
 ..... DONE WITH ONE PARTICLE DENSITY MATRIX .....
 STEP CPU TIME =     0.00 TOTAL CPU TIME =        0.3 (    0.0 MIN)
 TOTAL WALL CLOCK TIME=        0.4 SECONDS, CPU UTILIZATION IS  65.85%

     --------------------------------------------------------
     ALDET CI PROPERTIES...FOR THE WAVEFUNCTION OF STATE    1
               USING THE EXPECTATION VALUE DENSITY
     --------------------------------------------------------

          -----------------
          ENERGY COMPONENTS
          -----------------

         WAVEFUNCTION NORMALIZATION =       1.0000000000

                ONE ELECTRON ENERGY =     -10.8853992430
                TWO ELECTRON ENERGY =       2.6238284111
           NUCLEAR REPULSION ENERGY =       0.3307357808
                                      ------------------
                       TOTAL ENERGY =      -7.9308350512

 ELECTRON-ELECTRON POTENTIAL ENERGY =       2.6238284111
  NUCLEUS-ELECTRON POTENTIAL ENERGY =     -18.8446258753
   NUCLEUS-NUCLEUS POTENTIAL ENERGY =       0.3307357808
                                      ------------------
             TOTAL POTENTIAL ENERGY =     -15.8900616835
               TOTAL KINETIC ENERGY =       7.9592266323
                 VIRIAL RATIO (V/T) =       1.9964328719

          ---------------------------------------
          MULLIKEN AND LOWDIN POPULATION ANALYSES
          ---------------------------------------

               ----- POPULATIONS IN EACH AO -----
                             MULLIKEN      LOWDIN
              1  LI 1  S      1.99845     1.98610
              2  LI 1  S      0.26961     0.27032
              3  LI 1  X      0.00008     0.00006
              4  LI 1  Y      0.00008     0.00006
              5  LI 1  Z     -0.00021     0.00012
              6  LI 1  S      0.66902     0.47997
              7  LI 1  X     -0.00001     0.00001
              8  LI 1  Y     -0.00001     0.00001
              9  LI 1  Z      0.00339     0.00663
             10  LI 1 XX      0.01998     0.08662
             11  LI 1 YY      0.01998     0.08662
             12  LI 1 ZZ      0.02046     0.08700
             13  LI 1 XY      0.00000     0.00000
             14  LI 1 XZ      0.00000     0.00000
             15  LI 1 YZ      0.00000     0.00000
             16  H  2  S      0.36911     0.40049
             17  H  2  S      0.63005     0.59598
             18  H  2  X      0.00000     0.00000
             19  H  2  Y      0.00000     0.00000
             20  H  2  Z      0.00001     0.00001

          ----- MULLIKEN ATOMIC OVERLAP POPULATIONS -----
          (OFF-DIAGONAL ELEMENTS NEED TO BE MULTIPLIED BY 2)

             1           2

    1    2.9936422
    2    0.0071872   0.9919834

          TOTAL MULLIKEN AND LOWDIN ATOMIC POPULATIONS
       ATOM         MULL.POP.    CHARGE          LOW.POP.     CHARGE
    1 LI            3.000829   -0.000829         3.003509   -0.003509
    2 H             0.999171    0.000829         0.996491    0.003509

          ---------------------
          ELECTROSTATIC MOMENTS
          ---------------------

 POINT   1           X           Y           Z (BOHR)    CHARGE
                 0.000000    0.000000    1.139315       -0.00 (A.U.)
         DX          DY          DZ         /D/  (DEBYE)
     0.000000    0.000000   -0.284243    0.284243
 ...... END OF PROPERTY EVALUATION ......
 STEP CPU TIME =     0.00 TOTAL CPU TIME =        0.3 (    0.0 MIN)
 TOTAL WALL CLOCK TIME=        0.4 SECONDS, CPU UTILIZATION IS  65.85%
               580000  WORDS OF DYNAMIC MEMORY USED
 EXECUTION OF GAMESS TERMINATED NORMALLY Thu Jan 17 17:53:36 2019
 DDI: 263640 bytes (0.3 MB / 0 MWords) used by master data server.

 ----------------------------------------
 CPU timing information for all processes
 ========================================
 0: 0.226 + 0.57 = 0.283
 1: 0.10 + 0.44 = 0.55
 ----------------------------------------
 ddikick.x: exited gracefully.
unset echo
----- accounting info -----
Files used on the master node bach.ad64.riken.go.jp were:
-rw-------  1 maho  staff      280  1 17 17:53 .//LiH.631g/4.8/LiH.631g.fullCI.4.8.gamess.F05
-rw-r--r--  1 maho  staff   180016  1 17 17:53 .//LiH.631g/4.8/LiH.631g.fullCI.4.8.gamess.F08
-rw-r--r--  1 maho  staff   181704  1 17 17:53 .//LiH.631g/4.8/LiH.631g.fullCI.4.8.gamess.F09
-rw-r--r--  1 maho  staff  1832320  1 17 17:53 .//LiH.631g/4.8/LiH.631g.fullCI.4.8.gamess.F10
-rw-r--r--  1 maho  staff    78640  1 17 17:53 .//LiH.631g/4.8/LiH.631g.fullCI.4.8.gamess.F12
-rw-r--r--  1 maho  staff    14499  1 17 17:53 .//LiH.631g/4.8/LiH.631g.fullCI.4.8.gamess.dat
-rw-------  1 maho  staff      280  1 17 17:53 .//LiH.631g/4.8/LiH.631g.fullCI.4.8.gamess.inp
-rw-r--r--  1 maho  staff    44628  1 17 17:53 .//LiH.631g/4.8/LiH.631g.fullCI.4.8.gamess.log
ls: No match.
ls: No match.
ls: No match.
2019年 1月17日 木曜日 17時53分39秒 JST
0.348u 0.205s 0:03.77 14.3%	0+0k 1+1io 0pf+0w
