----- GAMESS execution script 'rungms' -----
This job is running on host bach.ad64.riken.go.jp
under operating system Darwin at 2019年 1月17日 木曜日 17時53分32秒 JST
Available scratch disk space (Kbyte units) at beginning of the job is
Filesystem   1024-blocks       Used Available Capacity iused      ifree %iused  Mounted on
/dev/disk2s2  1953178672 1144747304 808431368    59%  984662 4293982617    0%   /Volumes/Users
GAMESS temporary binary files will be written to ./
GAMESS supplementary output files will be written to ./
Copying input file LiH.631g/4.8/LiH.631g.CCSDT.4.8.gamess.inp to your run's scratch directory...
cp LiH.631g/4.8/LiH.631g.CCSDT.4.8.gamess.inp .//LiH.631g/4.8/LiH.631g.CCSDT.4.8.gamess.F05
unset echo
/Volumes/Users/maho/bin/gamess//ddikick.x /Volumes/Users/maho/bin/gamess//gamess.00.x LiH.631g/4.8/LiH.631g.CCSDT.4.8.gamess -ddi 1 1 bach.ad64.riken.go.jp -scr ./

 Distributed Data Interface kickoff program.
 Initiating 1 compute processes on 1 nodes to run the following command:
 /Volumes/Users/maho/bin/gamess//gamess.00.x LiH.631g/4.8/LiH.631g.CCSDT.4.8.gamess 

          ******************************************************
          *         GAMESS VERSION = 18 AUG 2016 (R1)          *
          *             FROM IOWA STATE UNIVERSITY             *
          * M.W.SCHMIDT, K.K.BALDRIDGE, J.A.BOATZ, S.T.ELBERT, *
          *   M.S.GORDON, J.H.JENSEN, S.KOSEKI, N.MATSUNAGA,   *
          *          K.A.NGUYEN, S.J.SU, T.L.WINDUS,           *
          *       TOGETHER WITH M.DUPUIS, J.A.MONTGOMERY       *
          *         J.COMPUT.CHEM.  14, 1347-1363(1993)        *
          **************** 64 BIT APPLE VERSION ****************

  SINCE 1993, STUDENTS AND POSTDOCS WORKING AT IOWA STATE UNIVERSITY
  AND ALSO IN THEIR VARIOUS JOBS AFTER LEAVING ISU HAVE MADE IMPORTANT
  CONTRIBUTIONS TO THE CODE:
     IVANA ADAMOVIC, CHRISTINE AIKENS, YURI ALEXEEV, POOJA ARORA,
     ANDREY ASADCHEV, ROB BELL, PRADIPTA BANDYOPADHYAY, JONATHAN BENTZ,
     BRETT BODE, KURT BRORSEN, CALEB CARLIN, GALINA CHABAN, WEI CHEN,
     CHEOL HO CHOI, PAUL DAY, ALBERT DEFUSCO, NUWAN DESILVA, TIM DUDLEY,
     DMITRI FEDOROV, GRAHAM FLETCHER, MARK FREITAG, KURT GLAESEMANN,
     DAN KEMP, GRANT MERRILL, NORIYUKI MINEZAWA, JONATHAN MULLIN,
     TAKESHI NAGATA, SEAN NEDD, HEATHER NETZLOFF, BOSILJKA NJEGIC, RYAN OLSON,
     MIKE PAK, SPENCER PRUITT, LUKE ROSKOP, JIM SHOEMAKER, LYUDMILA SLIPCHENKO,
     TONY SMITH, SAROM SOK LEANG, JIE SONG, TETSUYA TAKETSUGU, SIMON WEBB,
     PENG XU, SOOHAENG YOO, FEDERICO ZAHARIEV

  ADDITIONAL CODE HAS BEEN PROVIDED BY COLLABORATORS IN OTHER GROUPS:
     IOWA STATE UNIVERSITY:
          JOE IVANIC, AARON WEST, LAIMUTIS BYTAUTAS, KLAUS RUEDENBERG
     UNIVERSITY OF TOKYO: KIMIHIKO HIRAO, TAKAHITO NAKAJIMA,
          TAKAO TSUNEDA, MUNEAKI KAMIYA, SUSUMU YANAGISAWA,
          KIYOSHI YAGI, MAHITO CHIBA, SEIKEN TOKURA, NAOAKI KAWAKAMI
     UNIVERSITY OF AARHUS: FRANK JENSEN
     UNIVERSITY OF IOWA: VISVALDAS KAIRYS, HUI LI
     NATIONAL INST. OF STANDARDS AND TECHNOLOGY: WALT STEVENS, DAVID GARMER
     UNIVERSITY OF PISA: BENEDETTA MENNUCCI, JACOPO TOMASI
     UNIVERSITY OF MEMPHIS: HENRY KURTZ, PRAKASHAN KORAMBATH
     UNIVERSITY OF ALBERTA: TOBY ZENG, MARIUSZ KLOBUKOWSKI
     UNIVERSITY OF NEW ENGLAND: MARK SPACKMAN
     MIE UNIVERSITY: HIROAKI UMEDA
     NAT. INST. OF ADVANCED INDUSTRIAL SCIENCE AND TECHNOLOGY: KAZUO KITAURA
     MICHIGAN STATE UNIVERSITY:
          KAROL KOWALSKI, MARTA WLOCH, JEFFREY GOUR, JESSE LUTZ,
          WEI LI, PIOTR PIECUCH
     UNIVERSITY OF SILESIA: MONIKA MUSIAL, STANISLAW KUCHARSKI
     FACULTES UNIVERSITAIRES NOTRE-DAME DE LA PAIX:
          OLIVIER QUINET, BENOIT CHAMPAGNE
     UNIVERSITY OF CALIFORNIA - SANTA BARBARA: BERNARD KIRTMAN
     INSTITUTE FOR MOLECULAR SCIENCE:
          KAZUYA ISHIMURA, MICHIO KATOUDA, AND SHIGERU NAGASE
     UNIVERSITY OF NOTRE DAME: ANNA POMOGAEVA, DAN CHIPMAN
     KYUSHU UNIVERSITY:
          HARUYUKI NAKANO,
          FENG LONG GU, JACEK KORCHOWIEC, MARCIN MAKOWSKI, AND YURIKO AOKI,
          HIROTOSHI MORI AND EISAKU MIYOSHI
     PENNSYLVANIA STATE UNIVERSITY:
          TZVETELIN IORDANOV, CHET SWALINA, JONATHAN SKONE,
          SHARON HAMMES-SCHIFFER
     WASEDA UNIVERSITY:
          MASATO KOBAYASHI, TOMOKO AKAMA, TSUGUKI TOUMA,
          TAKESHI YOSHIKAWA, YASUHIRO IKABATA, JUNJI SEINO,
          YUYA NAKAJIMA, HIROMI NAKAI
     NANJING UNIVERSITY: SHUHUA LI
     UNIVERSITY OF NEBRASKA:
          PEIFENG SU, DEJUN SI, NANDUN THELLAMUREGE, YALI WANG, HUI LI
     UNIVERSITY OF ZURICH: ROBERTO PEVERATI, KIM BALDRIDGE
     N. COPERNICUS UNIVERSITY AND JACKSON STATE UNIVERSITY:
          MARIA BARYSZ
     UNIVERSITY OF COPENHAGEN: Jimmy Kromann, CASPER STEINMANN
     TOKYO INSTITUTE OF TECHNOLOGY: HIROYA NAKATA
     NAGOYA UNIVERSITY: YOSHIO NISHIMOTO, STEPHAN IRLE
     MOSCOW STATE UNIVERSITY: VLADIMIR MIRONOV

 EXECUTION OF GAMESS BEGUN Thu Jan 17 17:53:33 2019

            ECHO OF THE FIRST FEW INPUT CARDS -
 INPUT CARD> $CONTRL MULT=1 SCFTYP=RHF CCTYP=CCSD(T) $END                                   
 INPUT CARD> $BASIS GBASIS=N31 NGAUSS=6 NDFUNC=1 NPFUNC=1 $END                              
 INPUT CARD> $CCINP NCORE=0 $END                                                            
 INPUT CARD> $GUESS GUESS=HUCKEL $END                                                       
 INPUT CARD> $DATA                                                                          
 INPUT CARD>LiH...HF...6-31G* basis                                                         
 INPUT CARD>Cnv   2                                                                         
 INPUT CARD>                                                                                
 INPUT CARD>Li    3.0    0.0      0.0     0.0                                               
 INPUT CARD>H     1.0    0.0      0.0     4.8                                               
 INPUT CARD> $END                                                                           
    1000000 WORDS OF MEMORY AVAILABLE

     BASIS OPTIONS
     -------------
     GBASIS=N31          IGAUSS=       6      POLAR=POPN31  
     NDFUNC=       1     NFFUNC=       0     DIFFSP=       F
     NPFUNC=       1      DIFFS=       F     BASNAM=        


     RUN TITLE
     ---------
 LiH...HF...6-31G* basis                                                         

 THE POINT GROUP OF THE MOLECULE IS CNV     
 THE ORDER OF THE PRINCIPAL AXIS IS     2

 ATOM      ATOMIC                      COORDINATES (BOHR)
           CHARGE         X                   Y                   Z
 LI          3.0     0.0000000000        0.0000000000        0.0000000000
 H           1.0     0.0000000000        0.0000000000        9.0706847411

          INTERNUCLEAR DISTANCES (ANGS.)
          ------------------------------

                1 LI         2 H     

   1 LI      0.0000000    4.8000000  
   2 H       4.8000000    0.0000000  

  * ... LESS THAN  3.000


     ATOMIC BASIS SET
     ----------------
 THE CONTRACTED PRIMITIVE FUNCTIONS HAVE BEEN UNNORMALIZED
 THE CONTRACTED BASIS FUNCTIONS ARE NOW NORMALIZED TO UNITY

  SHELL TYPE  PRIMITIVE        EXPONENT          CONTRACTION COEFFICIENT(S)

 LI        

      1   S       1           642.4189150    0.002142607810
      1   S       2            96.7985153    0.016208871501
      1   S       3            22.0911212    0.077315572504
      1   S       4             6.2010702    0.245786052013
      1   S       5             1.9351177    0.470189004025
      1   S       6             0.6367358    0.345470845019

      2   L       7             2.3249184   -0.035091745735    0.008941508043
      2   L       8             0.6324304   -0.191232843103    0.141009464046
      2   L       9             0.0790534    1.083987794916    0.945363695309

      3   L      10             0.0359620    1.000000000000    1.000000000000

      4   D      11             0.2000000    1.000000000000

 H         

      5   S      12            18.7311370    0.033494604338
      5   S      13             2.8253944    0.234726953484
      5   S      14             0.6401217    0.813757326146

      6   S      15             0.1612778    1.000000000000

      7   P      16             1.1000000    1.000000000000

 TOTAL NUMBER OF BASIS SET SHELLS             =    7
 NUMBER OF CARTESIAN GAUSSIAN BASIS FUNCTIONS =   20
 NUMBER OF ELECTRONS                          =    4
 CHARGE OF MOLECULE                           =    0
 SPIN MULTIPLICITY                            =    1
 NUMBER OF OCCUPIED ORBITALS (ALPHA)          =    2
 NUMBER OF OCCUPIED ORBITALS (BETA )          =    2
 TOTAL NUMBER OF ATOMS                        =    2
 THE NUCLEAR REPULSION ENERGY IS        0.3307357808

 THIS MOLECULE IS RECOGNIZED AS BEING LINEAR,
 ORBITAL LZ DEGENERACY TOLERANCE ETOLLZ= 1.00E-06

     $CONTRL OPTIONS
     ---------------
 SCFTYP=RHF          RUNTYP=ENERGY       EXETYP=RUN     
 MPLEVL=       0     CITYP =NONE         CCTYP =CCSD(T)      VBTYP =NONE    
 DFTTYP=NONE         TDDFT =NONE    
 MULT  =       1     ICHARG=       0     NZVAR =       0     COORD =UNIQUE  
 PP    =NONE         RELWFN=NONE         LOCAL =NONE         NUMGRD=       F
 ISPHER=      -1     NOSYM =       0     MAXIT =      30     UNITS =ANGS    
 PLTORB=       F     MOLPLT=       F     AIMPAC=       F     FRIEND=        
 NPRINT=       7     IREST =       0     GEOM  =INPUT   
 NORMF =       0     NORMP =       0     ITOL  =      20     ICUT  =       9
 INTTYP=BEST         GRDTYP=BEST         QMTTOL= 1.0E-06

     $SYSTEM OPTIONS
     ---------------
  REPLICATED MEMORY=     1000000 WORDS (ON EVERY NODE).
 DISTRIBUTED MEMDDI=           0 MILLION WORDS IN AGGREGATE,
 MEMDDI DISTRIBUTED OVER   1 PROCESSORS IS           0 WORDS/PROCESSOR.
 TOTAL MEMORY REQUESTED ON EACH PROCESSOR=     1000000 WORDS.
 TIMLIM=      525600.00 MINUTES, OR     365.0 DAYS.
 PARALL= F  BALTYP=  DLB     KDIAG=    0  COREFL= F
 MXSEQ2=     300 MXSEQ3=     150  mem10=         0

          ----------------
          PROPERTIES INPUT
          ----------------

     MOMENTS            FIELD           POTENTIAL          DENSITY
 IEMOM =       1   IEFLD =       0   IEPOT =       0   IEDEN =       0
 WHERE =COMASS     WHERE =NUCLEI     WHERE =NUCLEI     WHERE =NUCLEI  
 OUTPUT=BOTH       OUTPUT=BOTH       OUTPUT=BOTH       OUTPUT=BOTH    
 IEMINT=       0   IEFINT=       0                     IEDINT=       0
                                                       MORB  =       0
          EXTRAPOLATION IN EFFECT
          SOSCF IN EFFECT
 ORBITAL PRINTING OPTION: NPREO=     1    20     2     1

     -------------------------------
     INTEGRAL TRANSFORMATION OPTIONS
     -------------------------------
     NWORD  =            0
     CUTOFF = 1.0E-09     MPTRAN =       0
     DIRTRF =       F     AOINTS =DUP     

          ----------------------
          INTEGRAL INPUT OPTIONS
          ----------------------
 NOPK  =       1 NORDER=       0 SCHWRZ=       F

     ------------------------------------------
     THE POINT GROUP IS CNV, NAXIS= 2, ORDER= 4
     ------------------------------------------

     DIMENSIONS OF THE SYMMETRY SUBSPACES ARE
 A1  =   11     A2  =    1     B1  =    4     B2  =    4

 ..... DONE SETTING UP THE RUN .....
 STEP CPU TIME =     0.00 TOTAL CPU TIME =        0.0 (    0.0 MIN)
 TOTAL WALL CLOCK TIME=        0.0 SECONDS, CPU UTILIZATION IS   0.00%

          ********************
          1 ELECTRON INTEGRALS
          ********************
 ...... END OF ONE-ELECTRON INTEGRALS ......
 STEP CPU TIME =     0.00 TOTAL CPU TIME =        0.0 (    0.0 MIN)
 TOTAL WALL CLOCK TIME=        0.0 SECONDS, CPU UTILIZATION IS   0.00%

          -------------
          GUESS OPTIONS
          -------------
          GUESS =HUCKEL            NORB  =       0          NORDER=       0
          MIX   =       F          PRTMO =       F          PUNMO =       F
          TOLZ  = 1.0E-08          TOLE  = 1.0E-05
          SYMDEN=       F          PURIFY=       F

 INITIAL GUESS ORBITALS GENERATED BY HUCKEL   ROUTINE.
 HUCKEL GUESS REQUIRES      4469 WORDS.

 SYMMETRIES FOR INITIAL GUESS ORBITALS FOLLOW.   BOTH SET(S).
     2 ORBITALS ARE OCCUPIED (    1 CORE ORBITALS).
     2=A1       3=A1       4=A1       5=A1       6=A1       7=A1       8=A1  
     9=A1      10=A1      11=A1      12=A2  
 ...... END OF INITIAL ORBITAL SELECTION ......
 STEP CPU TIME =     0.00 TOTAL CPU TIME =        0.0 (    0.0 MIN)
 TOTAL WALL CLOCK TIME=        0.0 SECONDS, CPU UTILIZATION IS   0.00%

                    ----------------------
                    AO INTEGRAL TECHNOLOGY
                    ----------------------
     S,P,L SHELL ROTATED AXIS INTEGRALS, REPROGRAMMED BY
        KAZUYA ISHIMURA (IMS) AND JOSE SIERRA (SYNSTAR).
     S,P,D,L SHELL ROTATED AXIS INTEGRALS PROGRAMMED BY
        KAZUYA ISHIMURA (INSTITUTE FOR MOLECULAR SCIENCE).
     S,P,D,F,G SHELL TO TOTAL QUARTET ANGULAR MOMENTUM SUM 5,
        ERIC PROGRAM BY GRAHAM FLETCHER (ELORET AND NASA ADVANCED
        SUPERCOMPUTING DIVISION, AMES RESEARCH CENTER).
     S,P,D,F,G,L SHELL GENERAL RYS QUADRATURE PROGRAMMED BY
        MICHEL DUPUIS (PACIFIC NORTHWEST NATIONAL LABORATORY).

          --------------------
          2 ELECTRON INTEGRALS
          --------------------

 THE -PK- OPTION IS OFF, THE INTEGRALS ARE NOT IN SUPERMATRIX FORM.
 STORING   15000 INTEGRALS/RECORD ON DISK, USING 12 BYTES/INTEGRAL.
 TWO ELECTRON INTEGRAL EVALUATION REQUIRES   90424 WORDS OF MEMORY.
 II,JST,KST,LST =  1  1  1  1 NREC =         1 INTLOC =    1
 II,JST,KST,LST =  2  1  1  1 NREC =         1 INTLOC =    2
 II,JST,KST,LST =  3  1  1  1 NREC =         1 INTLOC =   34
 II,JST,KST,LST =  4  1  1  1 NREC =         1 INTLOC =  214
 II,JST,KST,LST =  5  1  1  1 NREC =         1 INTLOC = 1189
 II,JST,KST,LST =  6  1  1  1 NREC =         1 INTLOC = 1774
 II,JST,KST,LST =  7  1  1  1 NREC =         1 INTLOC = 2597
 TOTAL NUMBER OF NONZERO TWO-ELECTRON INTEGRALS =                4841
          1 INTEGRAL RECORDS WERE STORED ON DISK FILE  8.
  ...... END OF TWO-ELECTRON INTEGRALS .....
 STEP CPU TIME =     0.02 TOTAL CPU TIME =        0.0 (    0.0 MIN)
 TOTAL WALL CLOCK TIME=        0.0 SECONDS, CPU UTILIZATION IS  66.67%

          --------------------------
                 RHF SCF CALCULATION
          --------------------------

     NUCLEAR ENERGY =         0.3307357808
     MAXIT =   30     NPUNCH=    2
     EXTRAP=T  DAMP=F  SHIFT=F  RSTRCT=F  DIIS=F  DEM=F  SOSCF=T
     DENSITY MATRIX CONV=  1.00E-06
     SOSCF WILL OPTIMIZE      36 ORBITAL ROTATIONS, SOGTOL=   0.250
     MEMORY REQUIRED FOR RHF ITERS=     33224 WORDS.

 ITER EX DEM     TOTAL ENERGY        E CHANGE  DENSITY CHANGE     ORB. GRAD
   1  0  0       -7.4868339731    -7.4868339731   1.043971566   0.000000000
          ---------------START SECOND ORDER SCF---------------
 SOSCF IS SCALING ROTATION ANGLE MATRIX, SQCDF=    0.102718
   2  1  0       -7.4537842876     0.0330496855   0.877142959   0.053965335
 SOSCF IS SCALING ROTATION ANGLE MATRIX, SQCDF=    0.163589
   3  2  0       -7.5413682304    -0.0875839428   0.872573424   0.082743756
 SOSCF IS SCALING ROTATION ANGLE MATRIX, SQCDF=    7.542872
   4  3  0       -7.6829199562    -0.1415517258   1.971694236   0.116093587
 SOSCF IS SCALING ROTATION ANGLE MATRIX, SQCDF=    0.124941
   5  4  0       -7.6641511746     0.0187687816   0.581614578   0.091885547
 SOSCF IS SCALING ROTATION ANGLE MATRIX, SQCDF=    0.161339
   6  5  0       -7.7147801181    -0.0506289435   2.750253974   0.091193106
   7  6  0       -7.7326873233    -0.0179072052   2.168671603   0.057524892
   8  7  0       -7.7826417159    -0.0499543926   1.317040149   0.043806194
   9  8  0       -7.7941147429    -0.0114730270   0.176034766   0.034874070
  10  9  0       -7.8049721875    -0.0108574445   0.183479208   0.020307111
 SOSCF IS SCALING ROTATION ANGLE MATRIX, SQCDF=    0.143153
  11 10  0       -7.8135496644    -0.0085774770   0.574010519   0.008930083
  12 11  0       -7.7823114513     0.0312382131   0.527208150   0.069539877
  13 12  0       -7.8190453830    -0.0367339316   0.145752279   0.011035012
  14 13  0       -7.8251057173    -0.0060603344   0.301500156   0.010208649
  15 14  0       -7.8031009079     0.0220048095   0.275401952   0.054223767
  16 15  0       -7.8273779381    -0.0242770303   0.029603044   0.005573602
  17 16  0       -7.8283894138    -0.0010114757   0.041298502   0.003442099
  18 17  0       -7.8286950778    -0.0003056640   0.009871906   0.001086246
  19 18  0       -7.8287247006    -0.0000296229   0.003662533   0.000406623
  20 19  0       -7.8287259479    -0.0000012473   0.003256800   0.000224732
  21 20  0       -7.8287263539    -0.0000004059   0.000214005   0.000021687
  22 21  0       -7.8287263623    -0.0000000084   0.000045403   0.000003697
  23 22  0       -7.8287263627    -0.0000000004   0.000009065   0.000000502
  24 23  0       -7.8287263627    -0.0000000000   0.000001658   0.000000121
  25 24  0       -7.8287263627    -0.0000000000   0.000000118   0.000000016

 RHF HAS CONVERGED, NOW COMPUTING EXACT TOTAL FOCK MATRIX
 FOR USE DURING THE COUPLED CLUSTER CALCULATION THAT FOLLOWS.

          -----------------
          DENSITY CONVERGED
          -----------------
     TIME TO FORM FOCK OPERATORS=       0.0 SECONDS (       0.0 SEC/ITER)
     TIME TO SOLVE SCF EQUATIONS=       0.0 SECONDS (       0.0 SEC/ITER)

 FINAL RHF ENERGY IS       -7.8287263627 AFTER  25 ITERATIONS

 LZ VALUE ANALYSIS FOR THE MOS
 ----------------------------------------
 MO     1 (    1) HAS LZ(WEIGHT)= 0.00(100.0%) 
 MO     2 (    2) HAS LZ(WEIGHT)= 0.00(100.0%) 
 MO     3 (    3) HAS LZ(WEIGHT)= 0.00(100.0%) 
 MO     4 (    4) HAS LZ(WEIGHT)=-1.00( 50.0%)  1.00( 50.0%) 
 MO     5 (    4) HAS LZ(WEIGHT)=-1.00( 50.0%)  1.00( 50.0%) 
 MO     6 (    5) HAS LZ(WEIGHT)= 0.00(100.0%) 
 MO     7 (    6) HAS LZ(WEIGHT)= 0.00(100.0%) 
 MO     8 (    7) HAS LZ(WEIGHT)=-1.00( 50.0%)  1.00( 50.0%) 
 MO     9 (    7) HAS LZ(WEIGHT)=-1.00( 50.0%)  1.00( 50.0%) 
 MO    10 (    8) HAS LZ(WEIGHT)= 0.00(100.0%) 
 MO    11 (    9) HAS LZ(WEIGHT)=-2.00( 50.0%)  2.00( 50.0%) 
 MO    12 (    9) HAS LZ(WEIGHT)=-2.00( 50.0%)  2.00( 50.0%) 
 MO    13 (   10) HAS LZ(WEIGHT)=-1.00( 50.0%)  1.00( 50.0%) 
 MO    14 (   10) HAS LZ(WEIGHT)=-1.00( 50.0%)  1.00( 50.0%) 
 MO    15 (   11) HAS LZ(WEIGHT)= 0.00(100.0%) 
 MO    16 (   12) HAS LZ(WEIGHT)= 0.00(100.0%) 
 MO    17 (   13) HAS LZ(WEIGHT)= 0.00(100.0%) 
 MO    18 (   14) HAS LZ(WEIGHT)=-1.00( 50.0%)  1.00( 50.0%) 
 MO    19 (   14) HAS LZ(WEIGHT)=-1.00( 50.0%)  1.00( 50.0%) 
 MO    20 (   15) HAS LZ(WEIGHT)= 0.00(100.0%) 

          ------------
          EIGENVECTORS
          ------------

                      1          2          3          4          5
                   -2.5869    -0.1780    -0.0536     0.0189     0.0189
                     A1         A1         A1         B2         B1  
    1  LI 1  S    0.998768  -0.096196  -0.161444  -0.000000  -0.000000
    2  LI 1  S   -0.012171  -0.077075   0.115971  -0.000000  -0.000000
    3  LI 1  X    0.000000   0.000000  -0.000000  -0.000000   0.242964
    4  LI 1  Y    0.000000   0.000000  -0.000000   0.242964  -0.000000
    5  LI 1  Z   -0.002073  -0.036442  -0.063777  -0.000000  -0.000000
    6  LI 1  S    0.001870   0.502506   0.692993  -0.000000  -0.000000
    7  LI 1  X    0.000000   0.000000  -0.000000  -0.000000   0.794320
    8  LI 1  Y    0.000000   0.000000  -0.000000   0.794320  -0.000000
    9  LI 1  Z    0.001383   0.209039  -0.276517  -0.000000  -0.000000
   10  LI 1 XX    0.008758   0.033909   0.033679  -0.000000  -0.000000
   11  LI 1 YY    0.008758   0.033909   0.033679  -0.000000  -0.000000
   12  LI 1 ZZ    0.008666   0.040970   0.030993  -0.000000  -0.000000
   13  LI 1 XY    0.000000   0.000000  -0.000000  -0.000000  -0.000000
   14  LI 1 XZ    0.000000   0.000000  -0.000000  -0.000000  -0.020921
   15  LI 1 YZ    0.000000   0.000000  -0.000000  -0.020921  -0.000000
   16  H  2  S    0.000047   0.238601  -0.119840  -0.000000  -0.000000
   17  H  2  S   -0.000176   0.622166  -0.321189  -0.000000  -0.000000
   18  H  2  X    0.000000   0.000000  -0.000000  -0.000000   0.000697
   19  H  2  Y    0.000000   0.000000  -0.000000   0.000697  -0.000000
   20  H  2  Z    0.000010  -0.001057  -0.000758  -0.000000  -0.000000

                      6          7          8          9         10
                    0.0419     0.1484     0.1632     0.1632     0.2047
                     A1         A1         B1         B2         A1  
    1  LI 1  S   -0.030371   0.060327  -0.000000  -0.000000   0.057976
    2  LI 1  S    0.423104   2.392672  -0.000000  -0.000000   2.140022
    3  LI 1  X   -0.000000  -0.000000   1.655666  -0.000000   0.000000
    4  LI 1  Y   -0.000000  -0.000000  -0.000000   1.655666   0.000000
    5  LI 1  Z    0.315343  -1.135603  -0.000000  -0.000000   1.217213
    6  LI 1  S   -0.132946  -1.864360  -0.000000  -0.000000  -1.705775
    7  LI 1  X   -0.000000  -0.000000  -1.473658  -0.000000   0.000000
    8  LI 1  Y   -0.000000  -0.000000  -0.000000  -1.473658   0.000000
    9  LI 1  Z    0.657258   0.963281  -0.000000  -0.000000  -1.214533
   10  LI 1 XX   -0.009804  -0.233330  -0.000000  -0.000000  -0.170613
   11  LI 1 YY   -0.009804  -0.233330  -0.000000  -0.000000  -0.170613
   12  LI 1 ZZ   -0.060924  -0.197696  -0.000000  -0.000000  -0.207416
   13  LI 1 XY   -0.000000  -0.000000  -0.000000  -0.000000   0.000000
   14  LI 1 XZ   -0.000000  -0.000000  -0.031286  -0.000000   0.000000
   15  LI 1 YZ   -0.000000  -0.000000  -0.000000  -0.031286   0.000000
   16  H  2  S   -0.095709   0.007291  -0.000000  -0.000000   0.051195
   17  H  2  S   -0.330729  -0.030369  -0.000000  -0.000000   0.266983
   18  H  2  X   -0.000000  -0.000000  -0.000816  -0.000000   0.000000
   19  H  2  Y   -0.000000  -0.000000  -0.000000  -0.000816   0.000000
   20  H  2  Z   -0.002406   0.000507  -0.000000  -0.000000   0.003093

                     11         12         13         14         15
                    0.4958     0.4958     0.4994     0.4994     0.5013
                     A1         A2         B1         B2         A1  
    1  LI 1  S   -0.000000   0.000000  -0.000000  -0.000000  -0.000628
    2  LI 1  S   -0.000000   0.000000  -0.000000  -0.000000   0.023905
    3  LI 1  X   -0.000000   0.000000   0.056925  -0.000000   0.000000
    4  LI 1  Y   -0.000000   0.000000  -0.000000   0.056925   0.000000
    5  LI 1  Z   -0.000000   0.000000  -0.000000  -0.000000   0.067802
    6  LI 1  S   -0.000000   0.000000  -0.000000  -0.000000  -0.007770
    7  LI 1  X   -0.000000   0.000000  -0.029510  -0.000000   0.000000
    8  LI 1  Y   -0.000000   0.000000  -0.000000  -0.029510   0.000000
    9  LI 1  Z   -0.000000   0.000000  -0.000000  -0.000000  -0.032086
   10  LI 1 XX   -0.866025   0.000000  -0.000000  -0.000000  -0.503860
   11  LI 1 YY    0.866025   0.000000  -0.000000  -0.000000  -0.503860
   12  LI 1 ZZ   -0.000000   0.000000  -0.000000  -0.000000   0.994246
   13  LI 1 XY   -0.000000   1.000000  -0.000000  -0.000000   0.000000
   14  LI 1 XZ   -0.000000   0.000000   0.999291  -0.000000   0.000000
   15  LI 1 YZ   -0.000000   0.000000  -0.000000   0.999291   0.000000
   16  H  2  S   -0.000000   0.000000  -0.000000  -0.000000  -0.016771
   17  H  2  S   -0.000000   0.000000  -0.000000  -0.000000  -0.000340
   18  H  2  X   -0.000000   0.000000   0.000139  -0.000000   0.000000
   19  H  2  Y   -0.000000   0.000000  -0.000000   0.000139   0.000000
   20  H  2  Z   -0.000000   0.000000  -0.000000  -0.000000  -0.000440

                     16         17         18         19         20
                    1.1405     1.1930     2.4668     2.4668     2.4705
                     A1         A1         B1         B2         A1  
    1  LI 1  S    0.092860   0.070848  -0.000000  -0.000000  -0.005218
    2  LI 1  S    7.998099   5.113747  -0.000000  -0.000000  -0.231825
    3  LI 1  X    0.000000   0.000000   0.009384  -0.000000  -0.000000
    4  LI 1  Y    0.000000   0.000000  -0.000000   0.009384  -0.000000
    5  LI 1  Z   -0.040342   0.131902  -0.000000  -0.000000  -0.038328
    6  LI 1  S   -2.426374  -1.714490  -0.000000  -0.000000   0.106938
    7  LI 1  X    0.000000   0.000000  -0.012472  -0.000000  -0.000000
    8  LI 1  Y    0.000000   0.000000  -0.000000  -0.012472  -0.000000
    9  LI 1  Z    0.069490  -0.199442  -0.000000  -0.000000   0.055666
   10  LI 1 XX   -2.683762  -1.644975  -0.000000  -0.000000   0.063259
   11  LI 1 YY   -2.683762  -1.644975  -0.000000  -0.000000   0.063259
   12  LI 1 ZZ   -2.674780  -1.665066  -0.000000  -0.000000   0.064151
   13  LI 1 XY    0.000000   0.000000  -0.000000  -0.000000  -0.000000
   14  LI 1 XZ    0.000000   0.000000  -0.000152  -0.000000  -0.000000
   15  LI 1 YZ    0.000000   0.000000  -0.000000  -0.000152  -0.000000
   16  H  2  S    0.649801  -1.133966  -0.000000  -0.000000   0.009988
   17  H  2  S   -0.484988   1.008589  -0.000000  -0.000000  -0.019537
   18  H  2  X    0.000000   0.000000   1.000020  -0.000000  -0.000000
   19  H  2  Y    0.000000   0.000000  -0.000000   1.000020  -0.000000
   20  H  2  Z    0.004558   0.006684  -0.000000  -0.000000   1.000559
 ...... END OF RHF CALCULATION ......
 STEP CPU TIME =     0.01 TOTAL CPU TIME =        0.0 (    0.0 MIN)
 TOTAL WALL CLOCK TIME=        0.1 SECONDS, CPU UTILIZATION IS  42.86%

     ----------------------------------------------------------------
     PROPERTY VALUES FOR THE RHF   SELF-CONSISTENT FIELD WAVEFUNCTION
     ----------------------------------------------------------------

          ---------------------------------------
          MULLIKEN AND LOWDIN POPULATION ANALYSES
          ---------------------------------------

               ----- POPULATIONS IN EACH AO -----
                             MULLIKEN      LOWDIN
              1  LI 1  S      1.99807     1.98013
              2  LI 1  S     -0.07325     0.10474
              3  LI 1  X      0.00000     0.00000
              4  LI 1  Y      0.00000     0.00000
              5  LI 1  Z     -0.01136     0.00742
              6  LI 1  S      0.52451     0.33218
              7  LI 1  X      0.00000     0.00000
              8  LI 1  Y      0.00000     0.00000
              9  LI 1  Z      0.12466     0.10365
             10  LI 1 XX      0.02176     0.02994
             11  LI 1 YY      0.02176     0.02994
             12  LI 1 ZZ      0.02652     0.03348
             13  LI 1 XY      0.00000     0.00000
             14  LI 1 XZ      0.00000     0.00000
             15  LI 1 YZ      0.00000     0.00000
             16  H  2  S      0.31834     0.39705
             17  H  2  S      1.04896     0.98142
             18  H  2  X      0.00000     0.00000
             19  H  2  Y      0.00000     0.00000
             20  H  2  Z      0.00002     0.00005

          ----- MULLIKEN ATOMIC OVERLAP POPULATIONS -----
          (OFF-DIAGONAL ELEMENTS NEED TO BE MULTIPLIED BY 2)

             1           2

    1    2.5442949
    2    0.0883847   1.2789358

          TOTAL MULLIKEN AND LOWDIN ATOMIC POPULATIONS
       ATOM         MULL.POP.    CHARGE          LOW.POP.     CHARGE
    1 LI            2.632680    0.367320         2.621478    0.378522
    2 H             1.367320   -0.367320         1.378522   -0.378522

          -------------------------------
          BOND ORDER AND VALENCE ANALYSIS     BOND ORDER THRESHOLD=0.050
          -------------------------------

                   BOND                       BOND                       BOND
  ATOM PAIR DIST  ORDER      ATOM PAIR DIST  ORDER      ATOM PAIR DIST  ORDER
    1   2  4.800  0.865

                       TOTAL       BONDED        FREE
      ATOM            VALENCE     VALENCE     VALENCE
    1 LI                0.865       0.865       0.000
    2 H                 0.865       0.865       0.000

          ---------------------
          ELECTROSTATIC MOMENTS
          ---------------------

 POINT   1           X           Y           Z (BOHR)    CHARGE
                 0.000000    0.000000    1.139315        0.00 (A.U.)
         DX          DY          DZ         /D/  (DEBYE)
     0.000000    0.000000  -12.261902   12.261902
 ...... END OF PROPERTY EVALUATION ......
 STEP CPU TIME =     0.01 TOTAL CPU TIME =        0.0 (    0.0 MIN)
 TOTAL WALL CLOCK TIME=        0.1 SECONDS, CPU UTILIZATION IS  57.14%

     ---------------------------
     COUPLED CLUSTER CALCULATION
     ---------------------------
 CCTYP                        =CCSD(T) 
 TOTAL NUMBER OF MOS          =    20
 NUMBER OF OCCUPIED MOS       =     2
 NUMBER OF FROZEN CORE MOS    =     0
 NUMBER OF FROZEN VIRTUAL MOS =     0
 MAXIMUM CC ITERATIONS        =    30
 MAXIMUM DIIS ITERATIONS      =     5
 CONVERGENCE CRITERION FOR CC =     7
 AMPLITUDE ACCURACY THRESHOLD = 0.0E+00

     --------------------------------------------
     PARTIAL TWO ELECTRON INTEGRAL TRANSFORMATION
     --------------------------------------------

 NUMBER OF CORE MOLECULAR ORBITALS     =    0
 NUMBER OF OCCUPIED MOLECULAR ORBITALS =   20
 TOTAL NUMBER OF MOLECULAR ORBITALS    =   20
 TOTAL NUMBER OF ATOMIC ORBITALS       =   20
 THRESHOLD FOR KEEPING TRANSFORMED 2E- INTEGRALS = 1.000E-09
 AO INTEGRALS WILL BE READ IN FROM DISK...

 PLAN A: REQUIREMENTS FOR FULLY IN-MEMORY TRANSFORMATION:
 # OF WORDS AVAILABLE =              1000000
 # OF WORDS NEEDED    =               146042

 CHOOSING IN MEMORY PARTIAL TRANSFORMATION...
 TOTAL NUMBER OF TRANSFORMED 2E- INTEGRALS KEPT =         5962
 ... END OF INTEGRAL TRANSFORMATION ...
 STEP CPU TIME =     0.00 TOTAL CPU TIME =        0.0 (    0.0 MIN)
 TOTAL WALL CLOCK TIME=        0.1 SECONDS, CPU UTILIZATION IS  50.00%

   -----------------------
   COUPLED-CLUSTER PROGRAM
   -----------------------

   -------------------------------------------------------
   P.PIECUCH, S.A.KUCHARSKI, M.WLOCH, K.KOWALSKI, M.MUSIAL
   -------------------------------------------------------

 *****************************************************************
 THE FOLLOWING PAPERS SHOULD BE CITED WHEN USING COUPLED-CLUSTER
 OPTIONS:

 CCTYP = LCCD, CCD, CCSD, CCSD(T)
 P. PIECUCH, S.A. KUCHARSKI, K. KOWALSKI, AND M. MUSIAL,
 COMP. PHYS. COMMUN. 149, 71-96 (2002).

 CCTYP = R-CC, CR-CC, CCSD(TQ), CR-CC(Q)
 P. PIECUCH, S.A. KUCHARSKI, K. KOWALSKI, AND M. MUSIAL,
 COMP. PHYS. COMMUN. 149, 71-96 (2002);
 K. KOWALSKI AND P. PIECUCH, J. CHEM. PHYS. 113, 18-35 (2000);
 K. KOWALSKI AND P. PIECUCH, J. CHEM. PHYS. 113, 5644-5652 (2000).

 CCTYP = EOM-CCSD, CR-EOM
 P. PIECUCH, S.A. KUCHARSKI, K. KOWALSKI, AND M. MUSIAL,
 COMP. PHYS. COMMUN. 149, 71-96 (2002);
 K. KOWALSKI AND P. PIECUCH, J. CHEM. PHYS. 120, 1715-1738 (2004);
 M. WLOCH, J.R. GOUR, K. KOWALSKI, AND P. PIECUCH,
 J. CHEM. PHYS. 122, 214107-1 - 214107-15 (2005).

 CCTYP = CR-CCL
 P. PIECUCH, S.A. KUCHARSKI, K. KOWALSKI, AND M. MUSIAL,
 COMP. PHYS. COMMUN. 149, 71-96 (2002);
 P. PIECUCH AND M. WLOCH, J. CHEM. PHYS. 123,
 224105-1 - 224105-10 (2005).

 CCTYP = CR-EOML
 P. PIECUCH, S.A. KUCHARSKI, K. KOWALSKI, AND M. MUSIAL,
 COMP. PHYS. COMMUN. 149, 71-96 (2002);
 P. PIECUCH, J. R. GOUR, AND M. WLOCH,
 INT. J. QUANTUM CHEM. 109, 3268-3304 (2009);
 K. KOWALSKI AND P. PIECUCH,
 J. CHEM. PHYS. 120, 1715-1738 (2004).

 IN ADDITION, THE USE OF CCPRP=.TRUE. IN $CCINP AND/OR THE USE
 OF CCPRPE=.TRUE. IN $EOMINP SHOULD REFERENCE

 M. WLOCH, J.R. GOUR, K. KOWALSKI, AND P. PIECUCH,
 J. CHEM. PHYS. 122, 214107-1 - 214107-15 (2005).
 *****************************************************************


 THE FOLLOWING CALCULATIONS WILL BE PERFORMED:
                                                     CCSD   
                                                     CCSD[T]
                                                     CCSD(T)

 THE FOLLOWING ENERGY WILL BE CONSIDERED THE HIGHEST LEVEL:    CCSD(T)
 THE AVAILABLE REPLICATED MEMORY IS     1000000 WORDS.
 CONVERGENCE THRESHOLD:   1.0E-07
 MAXIMUM NUMBER OF ITERATIONS:   30

 MEMORY TO BE USED IN CC INTEGRAL SORTING IS      140808 WORDS.
 THE MINIMUM MEMORY TO ACCOMPLISH SORTING IS       47496 WORDS.
         5962 NON-ZERO TRANSFORMED 2E- INTEGRALS WERE SORTED INTO FILE 72:
            6 [IJ|KL] TYPE,          48 [AJ|KL] TYPE,
          174 [AB|IJ] TYPE,         214 [IA|BJ] TYPE,
         1672 [AB|CI] TYPE,        3848 [AB|CD] TYPE.
 TRANSFORMED INTEGRAL FILE  9 WAS READ    3 TIMES.
 ....... DONE WITH CC INTEGRAL PREPARATION .......
 STEP CPU TIME =     0.00 TOTAL CPU TIME =        0.0 (    0.0 MIN)
 TOTAL WALL CLOCK TIME=        0.2 SECONDS, CPU UTILIZATION IS  23.53%

 MEMORY REQUIRED FOR THE CCSD ITERATIONS IS       23276 WORDS.
 ITER:  1   CCSD    CORR. ENERGY:  -0.0591542692   CONV.: -7.5913E-02
 ITER:  2   CCSD    CORR. ENERGY:  -0.0666833883   CONV.: -6.3886E-02
 ITER:  3   CCSD    CORR. ENERGY:  -0.0657903891   CONV.: -1.5489E-02
 ITER:  4   CCSD    CORR. ENERGY:  -0.0566504477   CONV.: -3.4148E-01
 ITER:  5   CCSD    CORR. ENERGY:  -0.0566825898   CONV.: -3.4117E-01
 ITER:  6   CCSD    CORR. ENERGY:  -0.0571034036   CONV.: -3.4077E-01
 ITER:  7   CCSD    CORR. ENERGY:  -0.0608862512   CONV.: -3.2444E-01
 ITER:  8   CCSD    CORR. ENERGY:  -0.0648861257   CONV.: -3.0511E-01
 ITER:  9   CCSD    CORR. ENERGY:  -0.1377051867   CONV.:  4.5820E-01
 ITER: 10   CCSD    CORR. ENERGY:  -0.1116366499   CONV.:  1.1266E-01
 ITER: 11   CCSD    CORR. ENERGY:  -0.0800401478   CONV.: -2.0424E-01
 ITER: 12   CCSD    CORR. ENERGY:  -0.0901389600   CONV.: -1.1402E-01
 ITER: 13   CCSD    CORR. ENERGY:  -0.1018871500   CONV.: -8.7630E-03
 ITER: 14   CCSD    CORR. ENERGY:  -0.1018024796   CONV.: -2.5998E-03
 ITER: 15   CCSD    CORR. ENERGY:  -0.1012657123   CONV.: -7.2737E-03
 ITER: 16   CCSD    CORR. ENERGY:  -0.1018821019   CONV.: -1.0238E-03
 ITER: 17   CCSD    CORR. ENERGY:  -0.1020037180   CONV.: -5.9222E-04
 ITER: 18   CCSD    CORR. ENERGY:  -0.1019478027   CONV.:  4.2833E-04
 ITER: 19   CCSD    CORR. ENERGY:  -0.1019782546   CONV.: -1.5998E-04
 ITER: 20   CCSD    CORR. ENERGY:  -0.1019665288   CONV.: -5.8622E-05
 ITER: 21   CCSD    CORR. ENERGY:  -0.1019720581   CONV.: -6.4346E-05
 ITER: 22   CCSD    CORR. ENERGY:  -0.1019700857   CONV.: -1.8158E-05
 ITER: 23   CCSD    CORR. ENERGY:  -0.1019735491   CONV.: -2.3169E-05
 ITER: 24   CCSD    CORR. ENERGY:  -0.1019709449   CONV.: -9.6279E-06
 ITER: 25   CCSD    CORR. ENERGY:  -0.1019722389   CONV.: -5.0994E-06
 ITER: 26   CCSD    CORR. ENERGY:  -0.1019720901   CONV.:  4.3964E-06
 ITER: 27   CCSD    CORR. ENERGY:  -0.1019721359   CONV.:  1.5232E-06
 ITER: 28   CCSD    CORR. ENERGY:  -0.1019720932   CONV.:  1.1257E-06
 ITER: 29   CCSD    CORR. ENERGY:  -0.1019721164   CONV.: -5.3079E-07
 ITER: 30   CCSD    CORR. ENERGY:  -0.1019721018   CONV.:  9.3718E-08

                  CCSD     ITERATIONS DID NOT CONVERGE


    MBPT(2) CORRELATION ENERGY:  -0.0503564202
    CCSD    CORRELATION ENERGY:  -0.1019721018

 T1 DIAGNOSTIC        =     0.26110849
 NORM OF THE T1 VECTOR=     0.52221698
 NORM OF THE T2 VECTOR=     1.11913539

 THE FIVE LARGEST T1 AMPLITUDES ARE:
 T1 AMPLITUDE IS -0.510217 FOR I=   2 -> A=   3
 T1 AMPLITUDE IS  0.085802 FOR I=   2 -> A=  10
 T1 AMPLITUDE IS -0.048270 FOR I=   2 -> A=  17
 T1 AMPLITUDE IS -0.035306 FOR I=   2 -> A=   7
 T1 AMPLITUDE IS  0.030013 FOR I=   2 -> A=  16

 THE FIVE LARGEST SPIN-UNIQUE T2 AMPLITUDES ARE:
 T2 AMPLITUDE IS -0.981555 FOR I,J=   2   2 -> A,B=   3   3
 T2 AMPLITUDE IS -0.357935 FOR I,J=   2   2 -> A,B=   3   6
 T2 AMPLITUDE IS -0.135190 FOR I,J=   2   2 -> A,B=   6   6
 T2 AMPLITUDE IS  0.059182 FOR I,J=   2   2 -> A,B=   3  17
 T2 AMPLITUDE IS -0.037602 FOR I,J=   2   2 -> A,B=   3  16
 PRINTED T2(I-ALPHA,J-BETA -> A-ALPHA,B-BETA) VALUES
 EQUAL   T2(J-ALPHA,I-BETA -> B-ALPHA,A-BETA) AMPLITUDES.

 ....... DONE WITH CC AMPLITUDE ITERATIONS .......
 STEP CPU TIME =     0.08 TOTAL CPU TIME =        0.1 (    0.0 MIN)
 TOTAL WALL CLOCK TIME=        0.3 SECONDS, CPU UTILIZATION IS  48.00%
 AMPLITUDE ITERATIONS DID NOT CONVERGE
 EXECUTION OF GAMESS TERMINATED -ABNORMALLY- AT Thu Jan 17 17:53:33 2019
               580000  WORDS OF DYNAMIC MEMORY USED
 STEP CPU TIME =     0.00 TOTAL CPU TIME =        0.1 (    0.0 MIN)
 TOTAL WALL CLOCK TIME=        0.3 SECONDS, CPU UTILIZATION IS  48.00%
 DDI Process 0: error code 911
 ddikick.x: application process 0 quit unexpectedly.
 ddikick.x: Fatal error detected.
 The error is most likely to be in the application, so check for
 input errors, disk space, memory needs, application bugs, etc.
 ddikick.x will now clean up all processes, and exit...
 DDI Process 1: terminated upon request.
 ddikick.x: Sending kill signal to DDI processes.
 ddikick.x: Execution terminated due to error(s).
unset echo
----- accounting info -----
Files used on the master node bach.ad64.riken.go.jp were:
-rw-------  1 maho  staff      258  1 17 17:53 .//LiH.631g/4.8/LiH.631g.CCSDT.4.8.gamess.F05
-rw-r--r--  1 maho  staff   180016  1 17 17:53 .//LiH.631g/4.8/LiH.631g.CCSDT.4.8.gamess.F08
-rw-r--r--  1 maho  staff   181704  1 17 17:53 .//LiH.631g/4.8/LiH.631g.CCSDT.4.8.gamess.F09
-rw-r--r--  1 maho  staff  1603280  1 17 17:53 .//LiH.631g/4.8/LiH.631g.CCSDT.4.8.gamess.F10
-rw-r--r--  1 maho  staff   388608  1 17 17:53 .//LiH.631g/4.8/LiH.631g.CCSDT.4.8.gamess.F70
-rw-r--r--  1 maho  staff   106560  1 17 17:53 .//LiH.631g/4.8/LiH.631g.CCSDT.4.8.gamess.F71
-rw-r--r--  1 maho  staff  2286144  1 17 17:53 .//LiH.631g/4.8/LiH.631g.CCSDT.4.8.gamess.F72
-rw-r--r--  1 maho  staff      864  1 17 17:53 .//LiH.631g/4.8/LiH.631g.CCSDT.4.8.gamess.F73
-rw-r--r--  1 maho  staff    20736  1 17 17:53 .//LiH.631g/4.8/LiH.631g.CCSDT.4.8.gamess.F74
-rw-r--r--  1 maho  staff        0  1 17 17:53 .//LiH.631g/4.8/LiH.631g.CCSDT.4.8.gamess.F75
-rw-r--r--  1 maho  staff        0  1 17 17:53 .//LiH.631g/4.8/LiH.631g.CCSDT.4.8.gamess.F76
-rw-r--r--  1 maho  staff        0  1 17 17:53 .//LiH.631g/4.8/LiH.631g.CCSDT.4.8.gamess.F77
-rw-r--r--  1 maho  staff     7352  1 17 17:53 .//LiH.631g/4.8/LiH.631g.CCSDT.4.8.gamess.dat
-rw-------  1 maho  staff      258  1 17 17:53 .//LiH.631g/4.8/LiH.631g.CCSDT.4.8.gamess.inp
-rw-r--r--  1 maho  staff    36859  1 17 17:53 .//LiH.631g/4.8/LiH.631g.CCSDT.4.8.gamess.log
ls: No match.
ls: No match.
ls: No match.
2019年 1月17日 木曜日 17時53分35秒 JST
0.207u 0.131s 0:02.64 12.5%	0+0k 3+9io 0pf+0w
