----- GAMESS execution script 'rungms' -----
This job is running on host localhost
under operating system Linux at Thu Jan 17 19:15:20 JST 2019
Available scratch disk space (Kbyte units) at beginning of the job is
Filesystem     1K-blocks      Used Available Use% Mounted on
/dev/sda1      895286904 141747880 708037996  17% /
GAMESS temporary binary files will be written to .
GAMESS supplementary output files will be written to .
Copying input file N2.SV/4.7/N2.SV.fullCI.4.7.gamess.inp to your run's scratch directory...
cp N2.SV/4.7/N2.SV.fullCI.4.7.gamess.inp ./N2.SV/4.7/N2.SV.fullCI.4.7.gamess.F05
unset echo
/work/pubchem/pm6/pkg/gamess_intel/ddikick.x /work/pubchem/pm6/pkg/gamess_intel/gamess.00.x N2.SV/4.7/N2.SV.fullCI.4.7.gamess -ddi 12 12 localhost localhost localhost localhost localhost localhost localhost localhost localhost localhost localhost localhost -scr .

 Distributed Data Interface kickoff program.
 Initiating 12 compute processes on 12 nodes to run the following command:
 /work/pubchem/pm6/pkg/gamess_intel/gamess.00.x N2.SV/4.7/N2.SV.fullCI.4.7.gamess 

          ******************************************************
          *         GAMESS VERSION =  5 DEC 2014 (R1)          *
          *             FROM IOWA STATE UNIVERSITY             *
          * M.W.SCHMIDT, K.K.BALDRIDGE, J.A.BOATZ, S.T.ELBERT, *
          *   M.S.GORDON, J.H.JENSEN, S.KOSEKI, N.MATSUNAGA,   *
          *          K.A.NGUYEN, S.J.SU, T.L.WINDUS,           *
          *       TOGETHER WITH M.DUPUIS, J.A.MONTGOMERY       *
          *         J.COMPUT.CHEM.  14, 1347-1363(1993)        *
          **************** 64 BIT INTEL VERSION ****************

  SINCE 1993, STUDENTS AND POSTDOCS WORKING AT IOWA STATE UNIVERSITY
  AND ALSO IN THEIR VARIOUS JOBS AFTER LEAVING ISU HAVE MADE IMPORTANT
  CONTRIBUTIONS TO THE CODE:
     IVANA ADAMOVIC, CHRISTINE AIKENS, YURI ALEXEEV, POOJA ARORA,
     ANDREY ASADCHEV, ROB BELL, PRADIPTA BANDYOPADHYAY, JONATHAN BENTZ,
     BRETT BODE, KURT BRORSEN, CALEB CARLIN, GALINA CHABAN, WEI CHEN,
     CHEOL HO CHOI, PAUL DAY, ALBERT DEFUSCO, NUWAN DESILVA, TIM DUDLEY,
     DMITRI FEDOROV, GRAHAM FLETCHER, MARK FREITAG, KURT GLAESEMANN,
     DAN KEMP, GRANT MERRILL, NORIYUKI MINEZAWA, JONATHAN MULLIN,
     TAKESHI NAGATA, SEAN NEDD, HEATHER NETZLOFF, BOSILJKA NJEGIC, RYAN OLSON,
     MIKE PAK, SPENCER PRUITT, LUKE ROSKOP, JIM SHOEMAKER, LYUDMILA SLIPCHENKO,
     TONY SMITH, SAROM SOK, JIE SONG, TETSUYA TAKETSUGU, SIMON WEBB,
     PENG XU, SOOHAENG YOO, FEDERICO ZAHARIEV

  ADDITIONAL CODE HAS BEEN PROVIDED BY COLLABORATORS IN OTHER GROUPS:
     IOWA STATE UNIVERSITY:
          JOE IVANIC, AARON WEST, LAIMUTIS BYTAUTAS, KLAUS RUEDENBERG
     UNIVERSITY OF TOKYO: KIMIHIKO HIRAO, TAKAHITO NAKAJIMA,
          TAKAO TSUNEDA, MUNEAKI KAMIYA, SUSUMU YANAGISAWA,
          KIYOSHI YAGI, MAHITO CHIBA, SEIKEN TOKURA, NAOAKI KAWAKAMI
     UNIVERSITY OF AARHUS: FRANK JENSEN
     UNIVERSITY OF IOWA: VISVALDAS KAIRYS, HUI LI
     NATIONAL INST. OF STANDARDS AND TECHNOLOGY: WALT STEVENS, DAVID GARMER
     UNIVERSITY OF PISA: BENEDETTA MENNUCCI, JACOPO TOMASI
     UNIVERSITY OF MEMPHIS: HENRY KURTZ, PRAKASHAN KORAMBATH
     UNIVERSITY OF ALBERTA: TOBY ZENG, MARIUSZ KLOBUKOWSKI
     UNIVERSITY OF NEW ENGLAND: MARK SPACKMAN
     MIE UNIVERSITY: HIROAKI UMEDA
     NAT. INST. OF ADVANCED INDUSTRIAL SCIENCE AND TECHNOLOGY: KAZUO KITAURA
     MICHIGAN STATE UNIVERSITY:
          KAROL KOWALSKI, MARTA WLOCH, JEFFREY GOUR, JESSE LUTZ,
          WEI LI, PIOTR PIECUCH
     UNIVERSITY OF SILESIA: MONIKA MUSIAL, STANISLAW KUCHARSKI
     FACULTES UNIVERSITAIRES NOTRE-DAME DE LA PAIX:
          OLIVIER QUINET, BENOIT CHAMPAGNE
     UNIVERSITY OF CALIFORNIA - SANTA BARBARA: BERNARD KIRTMAN
     INSTITUTE FOR MOLECULAR SCIENCE:
          KAZUYA ISHIMURA, MICHIO KATOUDA, AND SHIGERU NAGASE
     UNIVERSITY OF NOTRE DAME: ANNA POMOGAEVA, DAN CHIPMAN
     KYUSHU UNIVERSITY:
          HARUYUKI NAKANO,
          FENG LONG GU, JACEK KORCHOWIEC, MARCIN MAKOWSKI, AND YURIKO AOKI,
          HIROTOSHI MORI AND EISAKU MIYOSHI
     PENNSYLVANIA STATE UNIVERSITY:
          TZVETELIN IORDANOV, CHET SWALINA, JONATHAN SKONE,
          SHARON HAMMES-SCHIFFER
     WASEDA UNIVERSITY:
          MASATO KOBAYASHI, TOMOKO AKAMA, TSUGUKI TOUMA,
          TAKESHI YOSHIKAWA, YASUHIRO IKABATA, HIROMI NAKAI
     NANJING UNIVERSITY: SHUHUA LI
     UNIVERSITY OF NEBRASKA:
          PEIFENG SU, DEJUN SI, NANDUN THELLAMUREGE, YALI WANG, HUI LI
     UNIVERSITY OF ZURICH: ROBERTO PEVERATI, KIM BALDRIDGE
     N. COPERNICUS UNIVERSITY AND JACKSON STATE UNIVERSITY:
          MARIA BARYSZ
     UNIVERSITY OF COPENHAGEN: CASPER STEINMANN
     TOKYO INSTITUTE OF TECHNOLOGY: HIROYA NAKATA
     NAGOYA UNIVERSITY: YOSHIO NISHIMOTO, STEPHAN IRLE


 PARALLEL VERSION RUNNING ON       12 PROCESSORS IN       12 NODES.

 EXECUTION OF GAMESS BEGUN Thu Jan 17 19:15:20 2019

            ECHO OF THE FIRST FEW INPUT CARDS -
 INPUT CARD> $CONTRL SCFTYP=RHF CITYP=ALDET $END                                            
 INPUT CARD> $GUESS GUESS=HUCKEL $END                                                       
 INPUT CARD> $SYSTEM MWORDS=300 $END                                                        
 INPUT CARD> $CIDET SZ=0 GROUP=C2V NCORE=2 NACT=16 NELS=10 NSTGSS=6 $END                    
 INPUT CARD> $DATA                                                                          
 INPUT CARD>N2...HF...Double-zeta basis                                                     
 INPUT CARD>Cnv   2                                                                         
 INPUT CARD>                                                                                
 INPUT CARD>N     7.0    0.0      0.0     0.0                                               
 INPUT CARD>S   7                                                                           
 INPUT CARD>  1   5909.0000000              0.0011900                                       
 INPUT CARD>  2    887.5000000              0.0090990                                       
 INPUT CARD>  3    204.7000000              0.0441450                                       
 INPUT CARD>  4     59.8400000              0.1504640                                       
 INPUT CARD>  5     20.0000000              0.3567410                                       
 INPUT CARD>  6      7.1930000              0.4465330                                       
 INPUT CARD>  7      2.6860000              0.1456030                                       
 INPUT CARD>S   2                                                                           
 INPUT CARD>  1      7.1930000             -0.1604050                                       
 INPUT CARD>  2      0.7000000              1.0582150                                       
 INPUT CARD>S   1                                                                           
 INPUT CARD>  1      0.2133000              1.0000000                                       
 INPUT CARD>P   4                                                                           
 INPUT CARD>  1     26.7900000              0.0182540                                       
 INPUT CARD>  2      5.9560000              0.1164610                                       
 INPUT CARD>  3      1.7070000              0.3901780                                       
 INPUT CARD>  4      0.5314000              0.6371020                                       
 INPUT CARD>P   1                                                                           
 INPUT CARD>  1      0.1654000              1.0000000                                       
 INPUT CARD>                                                                                
 INPUT CARD>N     7.0    0.0      0.0     4.7                                               
 INPUT CARD>S   7                                                                           
 INPUT CARD>  1   5909.0000000              0.0011900                                       
 INPUT CARD>  2    887.5000000              0.0090990                                       
 INPUT CARD>  3    204.7000000              0.0441450                                       
 INPUT CARD>  4     59.8400000              0.1504640                                       
 INPUT CARD>  5     20.0000000              0.3567410                                       
 INPUT CARD>  6      7.1930000              0.4465330                                       
 INPUT CARD>  7      2.6860000              0.1456030                                       
 INPUT CARD>S   2                                                                           
 INPUT CARD>  1      7.1930000             -0.1604050                                       
 INPUT CARD>  2      0.7000000              1.0582150                                       
 INPUT CARD>S   1                                                                           
 INPUT CARD>  1      0.2133000              1.0000000                                       
 INPUT CARD>P   4                                                                           
 INPUT CARD>  1     26.7900000              0.0182540                                       
 INPUT CARD>  2      5.9560000              0.1164610                                       
 INPUT CARD>  3      1.7070000              0.3901780                                       
 INPUT CARD>  4      0.5314000              0.6371020                                       
 INPUT CARD>P   1                                                                           
  300000000 WORDS OF MEMORY AVAILABLE


     RUN TITLE
     ---------
 N2...HF...Double-zeta basis                                                     

 THE POINT GROUP OF THE MOLECULE IS CNV     
 THE ORDER OF THE PRINCIPAL AXIS IS     2

 ATOM      ATOMIC                      COORDINATES (BOHR)
           CHARGE         X                   Y                   Z
 N           7.0     0.0000000000        0.0000000000        0.0000000000
 N           7.0     0.0000000000        0.0000000000        8.8817121423

          INTERNUCLEAR DISTANCES (ANGS.)
          ------------------------------

                1 N          2 N     

   1 N       0.0000000    4.7000000  
   2 N       4.7000000    0.0000000  

  * ... LESS THAN  3.000


     ATOMIC BASIS SET
     ----------------
 THE CONTRACTED PRIMITIVE FUNCTIONS HAVE BEEN UNNORMALIZED
 THE CONTRACTED BASIS FUNCTIONS ARE NOW NORMALIZED TO UNITY

  SHELL TYPE  PRIMITIVE        EXPONENT          CONTRACTION COEFFICIENT(S)

 N         

      1   S       1          5909.0000000    0.001189999548
      1   S       2           887.5000000    0.009098996542
      1   S       3           204.7000000    0.044144983225
      1   S       4            59.8400000    0.150463942825
      1   S       5            20.0000000    0.356740864442
      1   S       6             7.1930000    0.446532830321
      1   S       7             2.6860000    0.145602944672

      2   S       8             7.1930000   -0.160405033446
      2   S       9             0.7000000    1.058215220651

      3   S      10             0.2133000    1.000000000000

      4   P      11            26.7900000    0.018253998243
      4   P      12             5.9560000    0.116460988791
      4   P      13             1.7070000    0.390177962446
      4   P      14             0.5314000    0.637101938680

      5   P      15             0.1654000    1.000000000000

 N         

      6   S      16          5909.0000000    0.001189999548
      6   S      17           887.5000000    0.009098996542
      6   S      18           204.7000000    0.044144983225
      6   S      19            59.8400000    0.150463942825
      6   S      20            20.0000000    0.356740864442
      6   S      21             7.1930000    0.446532830321
      6   S      22             2.6860000    0.145602944672

      7   S      23             7.1930000   -0.160405033446
      7   S      24             0.7000000    1.058215220651

      8   S      25             0.2133000    1.000000000000

      9   P      26            26.7900000    0.018253998243
      9   P      27             5.9560000    0.116460988791
      9   P      28             1.7070000    0.390177962446
      9   P      29             0.5314000    0.637101938680

     10   P      30             0.1654000    1.000000000000

 TOTAL NUMBER OF BASIS SET SHELLS             =   10
 NUMBER OF CARTESIAN GAUSSIAN BASIS FUNCTIONS =   18
 NUMBER OF ELECTRONS                          =   14
 CHARGE OF MOLECULE                           =    0
 SPIN MULTIPLICITY                            =    1
 NUMBER OF OCCUPIED ORBITALS (ALPHA)          =    7
 NUMBER OF OCCUPIED ORBITALS (BETA )          =    7
 TOTAL NUMBER OF ATOMS                        =    2
 THE NUCLEAR REPULSION ENERGY IS        5.5169543006

 THIS MOLECULE IS RECOGNIZED AS BEING LINEAR,
 ORBITAL LZ DEGENERACY TOLERANCE ETOLLZ= 1.00E-06

     $CONTRL OPTIONS
     ---------------
 SCFTYP=RHF          RUNTYP=ENERGY       EXETYP=RUN     
 MPLEVL=       0     CITYP =ALDET        CCTYP =NONE         VBTYP =NONE    
 DFTTYP=NONE         TDDFT =NONE    
 MULT  =       1     ICHARG=       0     NZVAR =       0     COORD =UNIQUE  
 PP    =NONE         RELWFN=NONE         LOCAL =NONE         NUMGRD=       F
 ISPHER=      -1     NOSYM =       0     MAXIT =      30     UNITS =ANGS    
 PLTORB=       F     MOLPLT=       F     AIMPAC=       F     FRIEND=        
 NPRINT=       7     IREST =       0     GEOM  =INPUT   
 NORMF =       0     NORMP =       0     ITOL  =      20     ICUT  =       9
 INTTYP=BEST         GRDTYP=BEST         QMTTOL= 1.0E-06

     $SYSTEM OPTIONS
     ---------------
  REPLICATED MEMORY=   300000000 WORDS (ON EVERY NODE).
 DISTRIBUTED MEMDDI=           0 MILLION WORDS IN AGGREGATE,
 MEMDDI DISTRIBUTED OVER  12 PROCESSORS IS           0 WORDS/PROCESSOR.
 TOTAL MEMORY REQUESTED ON EACH PROCESSOR=   300000000 WORDS.
 TIMLIM=      525600.00 MINUTES, OR     365.0 DAYS.
 PARALL= T  BALTYP=  DLB     KDIAG=    0  COREFL= F
 MXSEQ2=     300 MXSEQ3=     150  mem10=         0

          ----------------
          PROPERTIES INPUT
          ----------------

     MOMENTS            FIELD           POTENTIAL          DENSITY
 IEMOM =       1   IEFLD =       0   IEPOT =       0   IEDEN =       0
 WHERE =COMASS     WHERE =NUCLEI     WHERE =NUCLEI     WHERE =NUCLEI  
 OUTPUT=BOTH       OUTPUT=BOTH       OUTPUT=BOTH       OUTPUT=BOTH    
 IEMINT=       0   IEFINT=       0                     IEDINT=       0
                                                       MORB  =       0
          EXTRAPOLATION IN EFFECT
          SOSCF IN EFFECT
 ORBITAL PRINTING OPTION: NPREO=     1    18     2     1

     -------------------------------
     INTEGRAL TRANSFORMATION OPTIONS
     -------------------------------
     NWORD  =            0
     CUTOFF = 1.0E-09     MPTRAN =       0
     DIRTRF =       F     AOINTS =DUP     

          ----------------------
          INTEGRAL INPUT OPTIONS
          ----------------------
 NOPK  =       1 NORDER=       0 SCHWRZ=       F

     ------------------------------------------
     THE POINT GROUP IS CNV, NAXIS= 2, ORDER= 4
     ------------------------------------------

     DIMENSIONS OF THE SYMMETRY SUBSPACES ARE
 A1  =   10     A2  =    0     B1  =    4     B2  =    4

 ..... DONE SETTING UP THE RUN .....
 CPU     0: STEP CPU TIME=     0.02 TOTAL CPU TIME=        0.0 (    0.0 MIN)
 TOTAL WALL CLOCK TIME=        0.0 SECONDS, CPU UTILIZATION IS 100.00%

          ********************
          1 ELECTRON INTEGRALS
          ********************
 ...... END OF ONE-ELECTRON INTEGRALS ......
 CPU     0: STEP CPU TIME=     0.00 TOTAL CPU TIME=        0.0 (    0.0 MIN)
 TOTAL WALL CLOCK TIME=        0.0 SECONDS, CPU UTILIZATION IS  40.00%

          -------------
          GUESS OPTIONS
          -------------
          GUESS =HUCKEL            NORB  =       0          NORDER=       0
          MIX   =       F          PRTMO =       F          PUNMO =       F
          TOLZ  = 1.0E-08          TOLE  = 1.0E-05
          SYMDEN=       F          PURIFY=       F

 INITIAL GUESS ORBITALS GENERATED BY HUCKEL   ROUTINE.
 HUCKEL GUESS REQUIRES      4352 WORDS.

 SYMMETRIES FOR INITIAL GUESS ORBITALS FOLLOW.   BOTH SET(S).
     7 ORBITALS ARE OCCUPIED (    2 CORE ORBITALS).
     3=A1       4=A1       5=A1       6=B1       7=B2       8=B1       9=B2  
    10=A1      11=A1      12=A1      13=A1      14=A1      15=B1      16=B1  
    17=B2  
 ...... END OF INITIAL ORBITAL SELECTION ......
 CPU     0: STEP CPU TIME=     0.00 TOTAL CPU TIME=        0.0 (    0.0 MIN)
 TOTAL WALL CLOCK TIME=        0.0 SECONDS, CPU UTILIZATION IS  40.00%

                    ----------------------
                    AO INTEGRAL TECHNOLOGY
                    ----------------------
     S,P,L SHELL ROTATED AXIS INTEGRALS, REPROGRAMMED BY
        KAZUYA ISHIMURA (IMS) AND JOSE SIERRA (SYNSTAR).
     S,P,D,L SHELL ROTATED AXIS INTEGRALS PROGRAMMED BY
        KAZUYA ISHIMURA (INSTITUTE FOR MOLECULAR SCIENCE).
     S,P,D,F,G SHELL TO TOTAL QUARTET ANGULAR MOMENTUM SUM 5,
        ERIC PROGRAM BY GRAHAM FLETCHER (ELORET AND NASA ADVANCED
        SUPERCOMPUTING DIVISION, AMES RESEARCH CENTER).
     S,P,D,F,G,L SHELL GENERAL RYS QUADRATURE PROGRAMMED BY
        MICHEL DUPUIS (PACIFIC NORTHWEST NATIONAL LABORATORY).

          --------------------
          2 ELECTRON INTEGRALS
          --------------------

 THE -PK- OPTION IS OFF, THE INTEGRALS ARE NOT IN SUPERMATRIX FORM.
 STORING   15000 INTEGRALS/RECORD ON DISK, USING 12 BYTES/INTEGRAL.
 TWO ELECTRON INTEGRAL EVALUATION REQUIRES   89411 WORDS OF MEMORY.
 II,JST,KST,LST =  1  1  1  1 NREC =         1 INTLOC =    1
 II,JST,KST,LST =  2  1  1  1 NREC =         1 INTLOC =    2
 II,JST,KST,LST =  3  1  1  1 NREC =         1 INTLOC =    7
 II,JST,KST,LST =  4  1  1  1 NREC =         1 INTLOC =   13
 II,JST,KST,LST =  5  1  1  1 NREC =         1 INTLOC =   58
 II,JST,KST,LST =  6  1  1  1 NREC =         1 INTLOC =   58
 II,JST,KST,LST =  7  1  1  1 NREC =         1 INTLOC =   58
 II,JST,KST,LST =  8  1  1  1 NREC =         1 INTLOC =   58
 II,JST,KST,LST =  9  1  1  1 NREC =         1 INTLOC =  100
 II,JST,KST,LST = 10  1  1  1 NREC =         1 INTLOC =  326
 TOTAL NUMBER OF NONZERO TWO-ELECTRON INTEGRALS =                2757
         12 INTEGRAL RECORDS WERE STORED ON DISK FILE  8.
  ...... END OF TWO-ELECTRON INTEGRALS .....
 CPU     0: STEP CPU TIME=     0.02 TOTAL CPU TIME=        0.0 (    0.0 MIN)
 TOTAL WALL CLOCK TIME=        0.1 SECONDS, CPU UTILIZATION IS  50.00%

          --------------------------
                 RHF SCF CALCULATION
          --------------------------

     NUCLEAR ENERGY =         5.5169543006
     MAXIT =   30     NPUNCH=    2
     EXTRAP=T  DAMP=F  SHIFT=F  RSTRCT=F  DIIS=F  DEM=F  SOSCF=T
     DENSITY MATRIX CONV=  1.00E-06
     SOSCF WILL OPTIMIZE      77 ORBITAL ROTATIONS, SOGTOL=   0.250
     MEMORY REQUIRED FOR RHF ITERS=     32828 WORDS.

 ITER EX DEM     TOTAL ENERGY        E CHANGE  DENSITY CHANGE     ORB. GRAD
   1  0  0     -107.6605616317  -107.6605616317   0.263409379   0.000000000
          ---------------START SECOND ORDER SCF---------------
   2  1  0     -107.8374697447    -0.1769081129   0.113855603   0.061349748
   3  2  0     -107.8528113773    -0.0153416326   0.025443064   0.024103859
   4  3  0     -107.8558789923    -0.0030676150   0.002628545   0.001243427
   5  4  0     -107.8558884400    -0.0000094477   0.000867287   0.000356673
   6  5  0     -107.8558888699    -0.0000004299   0.000010999   0.000009426
   7  6  0     -107.8558888705    -0.0000000006   0.000003353   0.000001661
   8  7  0     -107.8558888705    -0.0000000000   0.000000534   0.000000292
   9  8  0     -107.8558888705    -0.0000000000   0.000000048   0.000000026

          -----------------
          DENSITY CONVERGED
          -----------------
     TIME TO FORM FOCK OPERATORS=       0.0 SECONDS (       0.0 SEC/ITER)
     TIME TO SOLVE SCF EQUATIONS=       0.0 SECONDS (       0.0 SEC/ITER)

 FINAL RHF ENERGY IS     -107.8558888705 AFTER   9 ITERATIONS

 LZ VALUE ANALYSIS FOR THE MOS
 ----------------------------------------
 MO     1 (    1) HAS LZ(WEIGHT)= 0.00(100.0%) 
 MO     2 (    2) HAS LZ(WEIGHT)= 0.00(100.0%) 
 MO     3 (    3) HAS LZ(WEIGHT)= 0.00(100.0%) 
 MO     4 (    4) HAS LZ(WEIGHT)= 0.00(100.0%) 
 MO     5 (    5) HAS LZ(WEIGHT)= 0.00(100.0%) 
 MO     6 (    6) HAS LZ(WEIGHT)=-1.00( 50.0%)  1.00( 50.0%) 
 MO     7 (    6) HAS LZ(WEIGHT)=-1.00( 50.0%)  1.00( 50.0%) 
 MO     8 (    7) HAS LZ(WEIGHT)=-1.00( 50.0%)  1.00( 50.0%) 
 MO     9 (    7) HAS LZ(WEIGHT)=-1.00( 50.0%)  1.00( 50.0%) 
 MO    10 (    8) HAS LZ(WEIGHT)= 0.00(100.0%) 
 MO    11 (    9) HAS LZ(WEIGHT)= 0.00(100.0%) 
 MO    12 (   10) HAS LZ(WEIGHT)=-1.00( 50.0%)  1.00( 50.0%) 
 MO    13 (   10) HAS LZ(WEIGHT)=-1.00( 50.0%)  1.00( 50.0%) 
 MO    14 (   11) HAS LZ(WEIGHT)=-1.00( 50.0%)  1.00( 50.0%) 
 MO    15 (   11) HAS LZ(WEIGHT)=-1.00( 50.0%)  1.00( 50.0%) 
 MO    16 (   12) HAS LZ(WEIGHT)= 0.00(100.0%) 
 MO    17 (   13) HAS LZ(WEIGHT)= 0.00(100.0%) 
 MO    18 (   14) HAS LZ(WEIGHT)= 0.00(100.0%) 

          ------------
          EIGENVECTORS
          ------------

                      1          2          3          4          5
                  -15.8156   -15.8156    -1.0265    -1.0227    -0.3101
                     A1         A1         A1         A1         A1  
    1  N  1  S    0.706968   0.706971  -0.173316  -0.173459  -0.001718
    2  N  1  S   -0.000095  -0.000089   0.408921   0.410772   0.009462
    3  N  1  S    0.000898   0.000878   0.359657   0.357842  -0.003978
    4  N  1  X    0.000000   0.000000   0.000000   0.000000   0.000000
    5  N  1  Y    0.000000   0.000000   0.000000   0.000000   0.000000
    6  N  1  Z    0.000061   0.000034   0.002555  -0.004520  -0.498142
    7  N  1  X    0.000000   0.000000   0.000000   0.000000   0.000000
    8  N  1  Y    0.000000   0.000000   0.000000   0.000000   0.000000
    9  N  1  Z   -0.000012  -0.000030   0.002743  -0.003134  -0.302163
   10  N  2  S    0.706968  -0.706971  -0.173316   0.173459  -0.001718
   11  N  2  S   -0.000095   0.000089   0.408921  -0.410772   0.009462
   12  N  2  S    0.000898  -0.000878   0.359657  -0.357842  -0.003978
   13  N  2  X    0.000000   0.000000   0.000000   0.000000   0.000000
   14  N  2  Y    0.000000   0.000000   0.000000   0.000000   0.000000
   15  N  2  Z   -0.000061   0.000034  -0.002555  -0.004520   0.498142
   16  N  2  X    0.000000   0.000000   0.000000   0.000000   0.000000
   17  N  2  Y    0.000000   0.000000   0.000000   0.000000   0.000000
   18  N  2  Z    0.000012  -0.000030  -0.002743  -0.003134   0.302163

                      6          7          8          9         10
                   -0.3069    -0.3069    -0.1955    -0.1955    -0.1897
                     B1         B2         B1         B2         A1  
    1  N  1  S    0.000000   0.000000   0.000000   0.000000  -0.002076
    2  N  1  S    0.000000   0.000000   0.000000   0.000000   0.008099
    3  N  1  S    0.000000   0.000000   0.000000   0.000000  -0.000351
    4  N  1  X    0.504125   0.000000  -0.504296   0.000000   0.000000
    5  N  1  Y    0.000000   0.504125   0.000000  -0.504296   0.000000
    6  N  1  Z    0.000000   0.000000   0.000000   0.000000   0.507001
    7  N  1  X    0.296630   0.000000  -0.296671   0.000000   0.000000
    8  N  1  Y    0.000000   0.296630   0.000000  -0.296671   0.000000
    9  N  1  Z    0.000000   0.000000   0.000000   0.000000   0.294789
   10  N  2  S    0.000000   0.000000   0.000000   0.000000   0.002076
   11  N  2  S    0.000000   0.000000   0.000000   0.000000  -0.008099
   12  N  2  S    0.000000   0.000000   0.000000   0.000000   0.000351
   13  N  2  X    0.504125   0.000000   0.504296   0.000000   0.000000
   14  N  2  Y    0.000000   0.504125   0.000000   0.504296   0.000000
   15  N  2  Z    0.000000   0.000000   0.000000   0.000000   0.507001
   16  N  2  X    0.296630   0.000000   0.296671   0.000000   0.000000
   17  N  2  Y    0.000000   0.296630   0.000000   0.296671   0.000000
   18  N  2  Z    0.000000   0.000000   0.000000   0.000000   0.294789

                     11         12         13         14         15
                    0.6225     0.6415     0.6415     0.6461     0.6461
                     A1         B1         B2         B1         B2  
    1  N  1  S   -0.002731   0.000000   0.000000   0.000000   0.000000
    2  N  1  S    0.028667   0.000000   0.000000   0.000000   0.000000
    3  N  1  S   -0.026575   0.000000   0.000000   0.000000   0.000000
    4  N  1  X    0.000000  -0.661931   0.000000   0.662361   0.000000
    5  N  1  Y    0.000000   0.000000  -0.661931   0.000000   0.662361
    6  N  1  Z    0.663370   0.000000   0.000000   0.000000   0.000000
    7  N  1  X    0.000000   0.776718   0.000000  -0.778486   0.000000
    8  N  1  Y    0.000000   0.000000   0.776718   0.000000  -0.778486
    9  N  1  Z   -0.764583   0.000000   0.000000   0.000000   0.000000
   10  N  2  S   -0.002731   0.000000   0.000000   0.000000   0.000000
   11  N  2  S    0.028667   0.000000   0.000000   0.000000   0.000000
   12  N  2  S   -0.026575   0.000000   0.000000   0.000000   0.000000
   13  N  2  X    0.000000  -0.661931   0.000000  -0.662361   0.000000
   14  N  2  Y    0.000000   0.000000  -0.661931   0.000000  -0.662361
   15  N  2  Z   -0.663370   0.000000   0.000000   0.000000   0.000000
   16  N  2  X    0.000000   0.776718   0.000000   0.778486   0.000000
   17  N  2  Y    0.000000   0.000000   0.776718   0.000000   0.778486
   18  N  2  Z    0.764583   0.000000   0.000000   0.000000   0.000000

                     16         17         18
                    0.6677     0.9053     0.9097
                     A1         A1         A1  
    1  N  1  S   -0.002760  -0.091207  -0.090917
    2  N  1  S    0.030770   1.109846   1.109572
    3  N  1  S   -0.029129  -1.103274  -1.104527
    4  N  1  X    0.000000   0.000000   0.000000
    5  N  1  Y    0.000000   0.000000   0.000000
    6  N  1  Z   -0.663094  -0.015506   0.018121
    7  N  1  X    0.000000   0.000000   0.000000
    8  N  1  Y    0.000000   0.000000   0.000000
    9  N  1  Z    0.788706   0.024515  -0.026225
   10  N  2  S    0.002760  -0.091207   0.090917
   11  N  2  S   -0.030770   1.109846  -1.109572
   12  N  2  S    0.029129  -1.103274   1.104527
   13  N  2  X    0.000000   0.000000   0.000000
   14  N  2  Y    0.000000   0.000000   0.000000
   15  N  2  Z   -0.663094   0.015506   0.018121
   16  N  2  X    0.000000   0.000000   0.000000
   17  N  2  Y    0.000000   0.000000   0.000000
   18  N  2  Z    0.788706  -0.024515  -0.026225
 ...... END OF RHF CALCULATION ......
 CPU     0: STEP CPU TIME=     0.01 TOTAL CPU TIME=        0.0 (    0.0 MIN)
 TOTAL WALL CLOCK TIME=        0.1 SECONDS, CPU UTILIZATION IS  55.56%

     ----------------------------------------------------------------
     PROPERTY VALUES FOR THE RHF   SELF-CONSISTENT FIELD WAVEFUNCTION
     ----------------------------------------------------------------

          -----------------
          ENERGY COMPONENTS
          -----------------

         WAVEFUNCTION NORMALIZATION =       1.0000000000

                ONE ELECTRON ENERGY =    -157.5371134937
                TWO ELECTRON ENERGY =      44.1642703226
           NUCLEAR REPULSION ENERGY =       5.5169543006
                                      ------------------
                       TOTAL ENERGY =    -107.8558888705

 ELECTRON-ELECTRON POTENTIAL ENERGY =      44.1642703226
  NUCLEUS-ELECTRON POTENTIAL ENERGY =    -265.0797739801
   NUCLEUS-NUCLEUS POTENTIAL ENERGY =       5.5169543006
                                      ------------------
             TOTAL POTENTIAL ENERGY =    -215.3985493569
               TOTAL KINETIC ENERGY =     107.5426604864
                 VIRIAL RATIO (V/T) =       2.0029125966

  ...... PI ENERGY ANALYSIS ......

 ENERGY ANALYSIS:
            FOCK ENERGY=    -69.2085724125
          BARE H ENERGY=   -157.5371134937
     ELECTRONIC ENERGY =   -113.3728429531
         KINETIC ENERGY=    107.5426604864
          N-N REPULSION=      5.5169543006
           TOTAL ENERGY=   -107.8558886525
        SIGMA PART(1+2)=   -102.0553102339
               (K,V1,2)=    101.0947357960   -237.2242157139     34.0741696841
           PI PART(1+2)=    -11.3175327192
               (K,V1,2)=      6.4479246904    -27.8555582662     10.0901008565
  SIGMA SKELETON, ERROR=    -96.5383559333      0.0000000000
             MIXED PART= 0.00000E+00 0.00000E+00 0.00000E+00 0.00000E+00
 ...... END OF PI ENERGY ANALYSIS ......

          ---------------------------------------
          MULLIKEN AND LOWDIN POPULATION ANALYSES
          ---------------------------------------

               ----- POPULATIONS IN EACH AO -----
                             MULLIKEN      LOWDIN
              1  N  1  S      2.00012     1.99714
              2  N  1  S      1.06347     1.03403
              3  N  1  S      0.93635     0.96878
              4  N  1  X      0.66602     0.64099
              5  N  1  Y      0.66602     0.64099
              6  N  1  Z      0.65526     0.63111
              7  N  1  X      0.33398     0.35901
              8  N  1  Y      0.33398     0.35901
              9  N  1  Z      0.34480     0.36894
             10  N  2  S      2.00012     1.99714
             11  N  2  S      1.06347     1.03403
             12  N  2  S      0.93635     0.96878
             13  N  2  X      0.66602     0.64099
             14  N  2  Y      0.66602     0.64099
             15  N  2  Z      0.65526     0.63111
             16  N  2  X      0.33398     0.35901
             17  N  2  Y      0.33398     0.35901
             18  N  2  Z      0.34480     0.36894

          ----- MULLIKEN ATOMIC OVERLAP POPULATIONS -----
          (OFF-DIAGONAL ELEMENTS NEED TO BE MULTIPLIED BY 2)

             1           2

    1    6.9959534
    2    0.0040466   6.9959534

          TOTAL MULLIKEN AND LOWDIN ATOMIC POPULATIONS
       ATOM         MULL.POP.    CHARGE          LOW.POP.     CHARGE
    1 N             7.000000   -0.000000         7.000000   -0.000000
    2 N             7.000000    0.000000         7.000000    0.000000

          ---------------------
          ELECTROSTATIC MOMENTS
          ---------------------

 POINT   1           X           Y           Z (BOHR)    CHARGE
                 0.000000    0.000000    4.440856        0.00 (A.U.)
         DX          DY          DZ         /D/  (DEBYE)
     0.000000    0.000000    0.000000    0.000000
 ...... END OF PROPERTY EVALUATION ......
 CPU     0: STEP CPU TIME=     0.00 TOTAL CPU TIME=        0.0 (    0.0 MIN)
 TOTAL WALL CLOCK TIME=        0.1 SECONDS, CPU UTILIZATION IS  38.46%

 DETERMINANT CI OPTIONS   NRNFG   NPFLG
 INTEGRAL TRANSFORMATION    1       0
 DIAGONALIZE HAMILTONIAN    1       0
 FORM 1E- DENSITY MATRIX    1       0
 FORM 2E- DENSITY MATRIX    0       0

     --------------------------------------------------
          AMES LABORATORY DETERMINANTAL FULL CI
     PROGRAM WRITTEN BY JOE IVANIC AND KLAUS RUEDENBERG
     --------------------------------------------------

 THE POINT GROUP                  =   C2V     
 THE STATE SYMMETRY               =   A1      
 NUMBER OF CORE ORBITALS          =    2
 NUMBER OF ACTIVE ORBITALS        =   16
 NUMBER OF ALPHA ELECTRONS        =    7 (   5 ACTIVE)
 NUMBER OF BETA ELECTRONS         =    7 (   5 ACTIVE)
 NUMBER OF OCCUPIED ORBITALS      =   18
 NUMBER OF CI STATES REQUESTED    =    1
 NUMBER OF CI STARTING VECTORS    =    6
 MAX. NO. OF CI EXPANSION VECTORS =   12
 SIZE OF INITIAL CI GUESS MATRIX  =  300
 MAX. NO. OF CI ITERS/STATE       =  100
 CI DIAGONALIZATION CRITERION     = 1.00E-06
 CI PROPERTIES WILL BE FOUND FOR ROOT NUMBER   1
 1E- DENSITY MATRIX OPTIONS ARE 1

 CORRELATION ENERGY ANALYSIS      =    F

 SYMMETRIES FOR THE   2 CORE,  16 ACTIVE ARE

     CORE= A1    A1  

   ACTIVE= A1    A1    A1    B1    B2    B1    B2    A1    A1    B1  
           B2    B1    B2    A1    A1    A1  

     --------------------------------------------
     PARTIAL TWO ELECTRON INTEGRAL TRANSFORMATION
     --------------------------------------------

 NUMBER OF CORE MOLECULAR ORBITALS     =    2
 NUMBER OF OCCUPIED MOLECULAR ORBITALS =   18
 TOTAL NUMBER OF MOLECULAR ORBITALS    =   18
 TOTAL NUMBER OF ATOMIC ORBITALS       =   18
 THRESHOLD FOR KEEPING TRANSFORMED 2E- INTEGRALS = 1.000E-09

 -------------------------------     ------------------------------
 DISTRIBUTED DATA TRANSFORMATION     PROGRAM WRITTEN BY G. FLETCHER
 -------------------------------     ------------------------------

 THE DISTRIBUTED MEMORY REQUIRED FOR THIS STEP IS MEMDDI=         1 MWORDS
 CREATING DISTRIBUTED STORAGE FOR [OCC OCC|OCC OCC] INTEGRALS
 DDI: Creating Array [0] - 171 x 171 = 29241 words.
 CREATING WORKSPACE OF SIZE VVOO
 DDI: Creating Array [1] - 171 x 171 = 29241 words.
 FOR   12 PROCESSORS, THE REPLICATED MEMORY NEEDED IS       58507 WORDS.

      DIRECT 4-INDEX TRANSFORMATION 
      SCHWARZ INEQUALITY TEST SKIPPED          0 INTEGRAL BLOCKS
 ----- FROZEN CORE ENERGY =       -92.1663271164
 ... END OF INTEGRAL TRANSFORMATION ...
 CPU     0: STEP CPU TIME=     0.01 TOTAL CPU TIME=        0.1 (    0.0 MIN)
 TOTAL WALL CLOCK TIME=        0.2 SECONDS, CPU UTILIZATION IS  33.33%

     --------------------------------------------------
          AMES LABORATORY DETERMINANTAL FULL CI
     PROGRAM WRITTEN BY JOE IVANIC AND KLAUS RUEDENBERG
     --------------------------------------------------

 THE NUMBER OF DETERMINANTS HAVING SPACE SYMMETRY A1 
 IN POINT GROUP C2V  WITH SZ=  0.0 IS        4777056
 THE DETERMINANT FULL CI REQUIRES       119865995 WORDS
 INITIAL CI VECTOR GUESS TIME  :          1.5
 INITIAL FULL CI ITERATION TIME:          6.0

 ITERATION      ENERGY           GRADIENT
     0     -108.7400847720     0.46111899
     1     -108.8420567895     0.18785426
     2     -108.8547100201     0.07115631
     3     -108.8563288842     0.03109280
     4     -108.8566353821     0.01555732
     5     -108.8567094744     0.00647721
     6     -108.8567210981     0.00229869
     7     -108.8567224161     0.00135875
     8     -108.8567228509     0.00105368
     9     -108.8567234158     0.00072425
    10     -108.8567235822     0.00043991
    11     -108.8567236339     0.00027199
    12     -108.8567236510     0.00015407
    13     -108.8567236550     0.00009144
    14     -108.8567236572     0.00005682
    15     -108.8567236581     0.00004014
    16     -108.8567236585     0.00002701
    17     -108.8567236588     0.00001967
    18     -108.8567236590     0.00001686
    19     -108.8567236590     0.00001137
    20     -108.8567236591     0.00000818
    21     -108.8567236591     0.00000656
    22     -108.8567236591     0.00000470
    23     -108.8567236591     0.00000248
    24     -108.8567236591     0.00000195
    25     -108.8567236591     0.00000166
    26     -108.8567236591     0.00000208
    27     -108.8567236591     0.00000243
    28     -108.8567236591     0.00000239
    29     -108.8567236591     0.00000339
    30     -108.8567236591     0.00000475
    31     -108.8567236591     0.00000435
    32     -108.8567236591     0.00000493
    33     -108.8567236592     0.00001135
    34     -108.8567236592     0.00002050
    35     -108.8567236598     0.00004885
    36     -108.8567236610     0.00006053
    37     -108.8567236636     0.00011553
    38     -108.8567236934     0.00052902
    39     -108.8567252152     0.00236634
    40     -108.8567265122     0.00114686
    41     -108.8567269085     0.00085919
    42     -108.8567270782     0.00067386
    43     -108.8567271579     0.00042989
    44     -108.8567272154     0.00030396
    45     -108.8567272605     0.00029863
    46     -108.8567272811     0.00019244
    47     -108.8567272903     0.00010528
    48     -108.8567272928     0.00006560
    49     -108.8567272938     0.00004888
    50     -108.8567272946     0.00003124
    51     -108.8567272948     0.00002207
    52     -108.8567272949     0.00001072
    53     -108.8567272950     0.00000875
    54     -108.8567272950     0.00000784
    55     -108.8567272950     0.00000480
    56     -108.8567272950     0.00000326
    57     -108.8567272950     0.00000314
    58     -108.8567272950     0.00000206
    59     -108.8567272950     0.00000118
    60     -108.8567272950     0.00000080

 CONVERGED STATE    1 ENERGY=     -108.8567272950 IN   60 ITERS

 ALL STATES CONVERGED.

 CI EIGENVECTORS WILL BE LABELED IN GROUP=C2V     
 PRINTING CI COEFFICIENTS LARGER THAN  0.050000

 STATE   1  ENERGY=      -108.8567272950  S=  0.00  SZ=  0.00  SPACE SYM=A1  

      ALPHA       |      BETA        | COEFFICIENT
------------------|------------------|------------
 1111100000000000 | 1111100000000000 |   0.2413985
 1111001000000000 | 1111001000000000 |  -0.2411006
 1110110000000000 | 1110110000000000 |  -0.2411006
 1110011000000000 | 1110011000000000 |   0.2408034
 1101100100000000 | 1101100100000000 |  -0.2389390
 1100110100000000 | 1100110100000000 |   0.2386467
 1101001100000000 | 1101001100000000 |   0.2386467
 1100011100000000 | 1100011100000000 |  -0.2383550
 1111010000000000 | 1110101000000000 |   0.1607334
 1110101000000000 | 1111010000000000 |   0.1607334
 1101110000000000 | 1110100100000000 |   0.1600016
 1110100100000000 | 1101110000000000 |   0.1600016
 1111000100000000 | 1101101000000000 |  -0.1600016
 1101101000000000 | 1111000100000000 |  -0.1600016
 1101011000000000 | 1110001100000000 |   0.1598051
 1110001100000000 | 1101011000000000 |   0.1598051
 1110010100000000 | 1100111000000000 |  -0.1598051
 1100111000000000 | 1110010100000000 |  -0.1598051
 1101010100000000 | 1100101100000000 |  -0.1590974
 1100101100000000 | 1101010100000000 |  -0.1590974
 1111001000000000 | 1110110000000000 |   0.0803669
 1110110000000000 | 1111001000000000 |   0.0803669
 1111100000000000 | 1110011000000000 |   0.0803665
 1110011000000000 | 1111100000000000 |   0.0803665
 1101100100000000 | 1111001000000000 |  -0.0800030
 1111001000000000 | 1101100100000000 |  -0.0800030
 1101100100000000 | 1110110000000000 |   0.0800030
 1110110000000000 | 1101100100000000 |   0.0800030
 1101001100000000 | 1111100000000000 |   0.0799987
 1111100000000000 | 1101001100000000 |   0.0799987
 1111100000000000 | 1100110100000000 |  -0.0799987
 1100110100000000 | 1111100000000000 |  -0.0799987
 1100110100000000 | 1110011000000000 |  -0.0799047
 1110011000000000 | 1100110100000000 |  -0.0799047
 1110011000000000 | 1101001100000000 |   0.0799047
 1101001100000000 | 1110011000000000 |   0.0799047
 1110110000000000 | 1100011100000000 |   0.0799004
 1100011100000000 | 1110110000000000 |   0.0799004
 1111001000000000 | 1100011100000000 |  -0.0799004
 1100011100000000 | 1111001000000000 |  -0.0799004
 1100110100000000 | 1101001100000000 |  -0.0795489
 1101001100000000 | 1100110100000000 |  -0.0795489
 1101100100000000 | 1100011100000000 |  -0.0795485
 1100011100000000 | 1101100100000000 |  -0.0795485
 ..... DONE WITH DETERMINANT CI COMPUTATION .....
 CPU     0: STEP CPU TIME=   156.68 TOTAL CPU TIME=      156.7 (    2.6 MIN)
 TOTAL WALL CLOCK TIME=      200.3 SECONDS, CPU UTILIZATION IS  78.26%

     ---------------------------
     ONE PARTICLE DENSITY MATRIX
     ---------------------------

 DENSITY MATRIX WILL BE SAVED FOR   1-TH STATE WITH S= 0.00

 CI EIGENSTATE   1 TOTAL ENERGY =     -108.8567272950

          NATURAL ORBITALS IN ATOMIC ORBITAL BASIS
          ----------------------------------------

                      1          2          3          4          5
                    2.0000     2.0000     1.9850     1.9849     1.0035
                     A1         A1         A1         A1         A1  
    1  N  1  S    0.706968   0.706971  -0.171041  -0.171062  -0.000092
    2  N  1  S   -0.000095  -0.000089   0.381705   0.382006   0.000763
    3  N  1  S    0.000898   0.000878   0.386501   0.386257  -0.000319
    4  N  1  X    0.000000   0.000000   0.000000   0.000000   0.000000
    5  N  1  Y    0.000000   0.000000   0.000000   0.000000   0.000000
    6  N  1  Z    0.000061   0.000034  -0.000335   0.000330  -0.558107
    7  N  1  X    0.000000   0.000000   0.000000   0.000000   0.000000
    8  N  1  Y    0.000000   0.000000   0.000000   0.000000   0.000000
    9  N  1  Z   -0.000012  -0.000030   0.000507  -0.000504  -0.229223
   10  N  2  S    0.706968  -0.706971  -0.171041   0.171062  -0.000092
   11  N  2  S   -0.000095   0.000089   0.381705  -0.382006   0.000763
   12  N  2  S    0.000898  -0.000878   0.386501  -0.386257  -0.000319
   13  N  2  X    0.000000   0.000000   0.000000   0.000000   0.000000
   14  N  2  Y    0.000000   0.000000   0.000000   0.000000   0.000000
   15  N  2  Z   -0.000061   0.000034   0.000335   0.000330   0.558107
   16  N  2  X    0.000000   0.000000   0.000000   0.000000   0.000000
   17  N  2  Y    0.000000   0.000000   0.000000   0.000000   0.000000
   18  N  2  Z    0.000012  -0.000030  -0.000507  -0.000504   0.229223

                      6          7          8          9         10
                    0.9963     0.9963     0.9947     0.9947     0.9875
                     B1         B2         B1         B2         A1  
    1  N  1  S    0.000000   0.000000   0.000000   0.000000  -0.000148
    2  N  1  S    0.000000   0.000000   0.000000   0.000000   0.000728
    3  N  1  S    0.000000   0.000000   0.000000   0.000000  -0.000293
    4  N  1  X    0.559802   0.000000  -0.560201   0.000000   0.000000
    5  N  1  Y    0.000000   0.559802   0.000000  -0.560201   0.000000
    6  N  1  Z    0.000000   0.000000   0.000000   0.000000   0.561850
    7  N  1  X    0.227931   0.000000  -0.227568   0.000000   0.000000
    8  N  1  Y    0.000000   0.227931   0.000000  -0.227568   0.000000
    9  N  1  Z    0.000000   0.000000   0.000000   0.000000   0.226305
   10  N  2  S    0.000000   0.000000   0.000000   0.000000   0.000148
   11  N  2  S    0.000000   0.000000   0.000000   0.000000  -0.000728
   12  N  2  S    0.000000   0.000000   0.000000   0.000000   0.000293
   13  N  2  X    0.559802   0.000000   0.560201   0.000000   0.000000
   14  N  2  Y    0.000000   0.559802   0.000000   0.560201   0.000000
   15  N  2  Z    0.000000   0.000000   0.000000   0.000000   0.561850
   16  N  2  X    0.227931   0.000000   0.227568   0.000000   0.000000
   17  N  2  Y    0.000000   0.227931   0.000000   0.227568   0.000000
   18  N  2  Z    0.000000   0.000000   0.000000   0.000000   0.226305

                     11         12         13         14         15
                    0.0108     0.0108     0.0061     0.0059     0.0059
                     A1         A1         A1         B1         B2  
    1  N  1  S   -0.095448  -0.095402   0.001568   0.000000   0.000000
    2  N  1  S    1.119683   1.120067  -0.022290   0.000000   0.000000
    3  N  1  S   -1.094236  -1.095086   0.023498   0.000000   0.000000
    4  N  1  X    0.000000   0.000000   0.000000  -0.615562   0.000000
    5  N  1  Y    0.000000   0.000000   0.000000   0.000000  -0.615562
    6  N  1  Z    0.011053  -0.009996   0.613879   0.000000   0.000000
    7  N  1  X    0.000000   0.000000   0.000000   0.799579   0.000000
    8  N  1  Y    0.000000   0.000000   0.000000   0.000000   0.799579
    9  N  1  Z   -0.012567   0.011491  -0.789808   0.000000   0.000000
   10  N  2  S   -0.095448   0.095402   0.001568   0.000000   0.000000
   11  N  2  S    1.119683  -1.120067  -0.022290   0.000000   0.000000
   12  N  2  S   -1.094236   1.095086   0.023498   0.000000   0.000000
   13  N  2  X    0.000000   0.000000   0.000000  -0.615562   0.000000
   14  N  2  Y    0.000000   0.000000   0.000000   0.000000  -0.615562
   15  N  2  Z   -0.011053  -0.009996  -0.613879   0.000000   0.000000
   16  N  2  X    0.000000   0.000000   0.000000   0.799579   0.000000
   17  N  2  Y    0.000000   0.000000   0.000000   0.000000   0.799579
   18  N  2  Z    0.012567   0.011491   0.789808   0.000000   0.000000

                     16         17         18
                    0.0059     0.0059     0.0057
                     B1         B2         A1  
    1  N  1  S    0.000000   0.000000   0.001458
    2  N  1  S    0.000000   0.000000  -0.020426
    3  N  1  S    0.000000   0.000000   0.021707
    4  N  1  X    0.615801   0.000000   0.000000
    5  N  1  Y    0.000000   0.615801   0.000000
    6  N  1  Z    0.000000   0.000000  -0.617508
    7  N  1  X   -0.801416   0.000000   0.000000
    8  N  1  Y    0.000000  -0.801416   0.000000
    9  N  1  Z    0.000000   0.000000   0.811363
   10  N  2  S    0.000000   0.000000  -0.001458
   11  N  2  S    0.000000   0.000000   0.020426
   12  N  2  S    0.000000   0.000000  -0.021707
   13  N  2  X   -0.615801   0.000000   0.000000
   14  N  2  Y    0.000000  -0.615801   0.000000
   15  N  2  Z    0.000000   0.000000  -0.617508
   16  N  2  X    0.801416   0.000000   0.000000
   17  N  2  Y    0.000000   0.801416   0.000000
   18  N  2  Z    0.000000   0.000000   0.811363
 ..... DONE WITH ONE PARTICLE DENSITY MATRIX .....
 CPU     0: STEP CPU TIME=     0.98 TOTAL CPU TIME=      157.7 (    2.6 MIN)
 TOTAL WALL CLOCK TIME=      201.3 SECONDS, CPU UTILIZATION IS  78.37%

     --------------------------------------------------------
     ALDET CI PROPERTIES...FOR THE WAVEFUNCTION OF STATE    1
               USING THE EXPECTATION VALUE DENSITY
     --------------------------------------------------------

          -----------------
          ENERGY COMPONENTS
          -----------------

         WAVEFUNCTION NORMALIZATION =       1.0000000000

                ONE ELECTRON ENERGY =    -158.7050481979
                TWO ELECTRON ENERGY =      44.3313666023
           NUCLEAR REPULSION ENERGY =       5.5169543006
                                      ------------------
                       TOTAL ENERGY =    -108.8567272950

 ELECTRON-ELECTRON POTENTIAL ENERGY =      44.3313666023
  NUCLEUS-ELECTRON POTENTIAL ENERGY =    -267.4170004509
   NUCLEUS-NUCLEUS POTENTIAL ENERGY =       5.5169543006
                                      ------------------
             TOTAL POTENTIAL ENERGY =    -217.5686795480
               TOTAL KINETIC ENERGY =     108.7119522530
                 VIRIAL RATIO (V/T) =       2.0013317307

          ---------------------------------------
          MULLIKEN AND LOWDIN POPULATION ANALYSES
          ---------------------------------------

               ----- POPULATIONS IN EACH AO -----
                             MULLIKEN      LOWDIN
              1  N  1  S      2.00011     1.99634
              2  N  1  S      0.98049     0.98290
              3  N  1  S      1.01518     1.01654
              4  N  1  X      0.75971     0.72076
              5  N  1  Y      0.75971     0.72076
              6  N  1  Z      0.75965     0.72070
              7  N  1  X      0.24169     0.28064
              8  N  1  Y      0.24169     0.28064
              9  N  1  Z      0.24176     0.28071
             10  N  2  S      2.00011     1.99634
             11  N  2  S      0.98049     0.98290
             12  N  2  S      1.01518     1.01654
             13  N  2  X      0.75971     0.72076
             14  N  2  Y      0.75971     0.72076
             15  N  2  Z      0.75965     0.72070
             16  N  2  X      0.24169     0.28064
             17  N  2  Y      0.24169     0.28064
             18  N  2  Z      0.24176     0.28071

          ----- MULLIKEN ATOMIC OVERLAP POPULATIONS -----
          (OFF-DIAGONAL ELEMENTS NEED TO BE MULTIPLIED BY 2)

             1           2

    1    6.9999533
    2    0.0000467   6.9999533

          TOTAL MULLIKEN AND LOWDIN ATOMIC POPULATIONS
       ATOM         MULL.POP.    CHARGE          LOW.POP.     CHARGE
    1 N             7.000000    0.000000         7.000000    0.000000
    2 N             7.000000    0.000000         7.000000    0.000000

          ---------------------
          ELECTROSTATIC MOMENTS
          ---------------------

 POINT   1           X           Y           Z (BOHR)    CHARGE
                 0.000000    0.000000    4.440856        0.00 (A.U.)
         DX          DY          DZ         /D/  (DEBYE)
     0.000000    0.000000    0.000000    0.000000
 ...... END OF PROPERTY EVALUATION ......
 CPU     0: STEP CPU TIME=     0.01 TOTAL CPU TIME=      157.7 (    2.6 MIN)
 TOTAL WALL CLOCK TIME=      201.7 SECONDS, CPU UTILIZATION IS  78.19%
             119866895  WORDS OF DYNAMIC MEMORY USED
 EXECUTION OF GAMESS TERMINATED NORMALLY Thu Jan 17 19:18:42 2019
 DDI: 305760 bytes (0.3 MB / 0 MWords) used by master data server.

 ----------------------------------------
 CPU timing information for all processes
 ========================================
 0: 147.432 + 10.468 = 157.900
 1: 146.252 + 12.00 = 158.252
 2: 145.452 + 11.540 = 156.992
 3: 146.220 + 11.148 = 157.368
 4: 148.84 + 12.24 = 160.108
 5: 146.964 + 10.948 = 157.912
 6: 144.696 + 10.372 = 155.68
 7: 146.280 + 11.240 = 157.520
 8: 147.156 + 9.456 = 156.612
 9: 147.104 + 10.460 = 157.564
 10: 146.872 + 11.236 = 158.108
 11: 146.784 + 9.116 = 155.900
 12: 0.596 + 6.80 = 6.676
 13: 0.04 + 0.04 = 0.08
 14: 0.08 + 0.00 = 0.08
 15: 0.04 + 0.04 = 0.08
 16: 0.04 + 0.04 = 0.08
 17: 0.00 + 0.08 = 0.08
 18: 0.00 + 0.08 = 0.08
 19: 0.04 + 0.04 = 0.08
 20: 0.00 + 0.08 = 0.08
 21: 0.08 + 0.00 = 0.08
 22: 0.04 + 0.04 = 0.08
 23: 0.00 + 0.04 = 0.04
 ----------------------------------------
 ddikick.x: exited gracefully.
unset echo
----- accounting info -----
Files used on the master node localhost were:
-rw-rw-r-- 1 maho maho    13429 Jan 17 19:18 ./N2.SV/4.7/N2.SV.fullCI.4.7.gamess.dat
-rw------- 1 maho maho     1813 Jan 17 19:15 ./N2.SV/4.7/N2.SV.fullCI.4.7.gamess.F05
-rw-rw-r-- 1 maho maho   180016 Jan 17 19:15 ./N2.SV/4.7/N2.SV.fullCI.4.7.gamess.F08
-rw-rw-r-- 1 maho maho     1376 Jan 17 19:15 ./N2.SV/4.7/N2.SV.fullCI.4.7.gamess.F09
-rw-rw-r-- 1 maho maho  1865040 Jan 17 19:18 ./N2.SV/4.7/N2.SV.fullCI.4.7.gamess.F10
-rw-rw-r-- 1 maho maho 38216480 Jan 17 19:18 ./N2.SV/4.7/N2.SV.fullCI.4.7.gamess.F12
-rw------- 1 maho maho     1813 Jan 17 19:15 ./N2.SV/4.7/N2.SV.fullCI.4.7.gamess.inp
-rw-rw-r-- 1 maho maho    49739 Jan 17 19:18 ./N2.SV/4.7/N2.SV.fullCI.4.7.gamess.log
ls: No match.
ls: No match.
ls: No match.
Thu Jan 17 19:18:45 JST 2019
0.0u 0.0s 3:25.41 0.0% 0+0k 0+8io 0pf+0w
