----- GAMESS execution script 'rungms' -----
This job is running on host localhost
under operating system Linux at Thu Jan 17 18:42:06 JST 2019
Available scratch disk space (Kbyte units) at beginning of the job is
Filesystem     1K-blocks      Used Available Use% Mounted on
/dev/sda1      895286904 141746036 708039840  17% /
GAMESS temporary binary files will be written to .
GAMESS supplementary output files will be written to .
Copying input file N2.SV/3.7/N2.SV.fullCI.3.7.gamess.inp to your run's scratch directory...
cp N2.SV/3.7/N2.SV.fullCI.3.7.gamess.inp ./N2.SV/3.7/N2.SV.fullCI.3.7.gamess.F05
unset echo
/work/pubchem/pm6/pkg/gamess_intel/ddikick.x /work/pubchem/pm6/pkg/gamess_intel/gamess.00.x N2.SV/3.7/N2.SV.fullCI.3.7.gamess -ddi 12 12 localhost localhost localhost localhost localhost localhost localhost localhost localhost localhost localhost localhost -scr .

 Distributed Data Interface kickoff program.
 Initiating 12 compute processes on 12 nodes to run the following command:
 /work/pubchem/pm6/pkg/gamess_intel/gamess.00.x N2.SV/3.7/N2.SV.fullCI.3.7.gamess 

          ******************************************************
          *         GAMESS VERSION =  5 DEC 2014 (R1)          *
          *             FROM IOWA STATE UNIVERSITY             *
          * M.W.SCHMIDT, K.K.BALDRIDGE, J.A.BOATZ, S.T.ELBERT, *
          *   M.S.GORDON, J.H.JENSEN, S.KOSEKI, N.MATSUNAGA,   *
          *          K.A.NGUYEN, S.J.SU, T.L.WINDUS,           *
          *       TOGETHER WITH M.DUPUIS, J.A.MONTGOMERY       *
          *         J.COMPUT.CHEM.  14, 1347-1363(1993)        *
          **************** 64 BIT INTEL VERSION ****************

  SINCE 1993, STUDENTS AND POSTDOCS WORKING AT IOWA STATE UNIVERSITY
  AND ALSO IN THEIR VARIOUS JOBS AFTER LEAVING ISU HAVE MADE IMPORTANT
  CONTRIBUTIONS TO THE CODE:
     IVANA ADAMOVIC, CHRISTINE AIKENS, YURI ALEXEEV, POOJA ARORA,
     ANDREY ASADCHEV, ROB BELL, PRADIPTA BANDYOPADHYAY, JONATHAN BENTZ,
     BRETT BODE, KURT BRORSEN, CALEB CARLIN, GALINA CHABAN, WEI CHEN,
     CHEOL HO CHOI, PAUL DAY, ALBERT DEFUSCO, NUWAN DESILVA, TIM DUDLEY,
     DMITRI FEDOROV, GRAHAM FLETCHER, MARK FREITAG, KURT GLAESEMANN,
     DAN KEMP, GRANT MERRILL, NORIYUKI MINEZAWA, JONATHAN MULLIN,
     TAKESHI NAGATA, SEAN NEDD, HEATHER NETZLOFF, BOSILJKA NJEGIC, RYAN OLSON,
     MIKE PAK, SPENCER PRUITT, LUKE ROSKOP, JIM SHOEMAKER, LYUDMILA SLIPCHENKO,
     TONY SMITH, SAROM SOK, JIE SONG, TETSUYA TAKETSUGU, SIMON WEBB,
     PENG XU, SOOHAENG YOO, FEDERICO ZAHARIEV

  ADDITIONAL CODE HAS BEEN PROVIDED BY COLLABORATORS IN OTHER GROUPS:
     IOWA STATE UNIVERSITY:
          JOE IVANIC, AARON WEST, LAIMUTIS BYTAUTAS, KLAUS RUEDENBERG
     UNIVERSITY OF TOKYO: KIMIHIKO HIRAO, TAKAHITO NAKAJIMA,
          TAKAO TSUNEDA, MUNEAKI KAMIYA, SUSUMU YANAGISAWA,
          KIYOSHI YAGI, MAHITO CHIBA, SEIKEN TOKURA, NAOAKI KAWAKAMI
     UNIVERSITY OF AARHUS: FRANK JENSEN
     UNIVERSITY OF IOWA: VISVALDAS KAIRYS, HUI LI
     NATIONAL INST. OF STANDARDS AND TECHNOLOGY: WALT STEVENS, DAVID GARMER
     UNIVERSITY OF PISA: BENEDETTA MENNUCCI, JACOPO TOMASI
     UNIVERSITY OF MEMPHIS: HENRY KURTZ, PRAKASHAN KORAMBATH
     UNIVERSITY OF ALBERTA: TOBY ZENG, MARIUSZ KLOBUKOWSKI
     UNIVERSITY OF NEW ENGLAND: MARK SPACKMAN
     MIE UNIVERSITY: HIROAKI UMEDA
     NAT. INST. OF ADVANCED INDUSTRIAL SCIENCE AND TECHNOLOGY: KAZUO KITAURA
     MICHIGAN STATE UNIVERSITY:
          KAROL KOWALSKI, MARTA WLOCH, JEFFREY GOUR, JESSE LUTZ,
          WEI LI, PIOTR PIECUCH
     UNIVERSITY OF SILESIA: MONIKA MUSIAL, STANISLAW KUCHARSKI
     FACULTES UNIVERSITAIRES NOTRE-DAME DE LA PAIX:
          OLIVIER QUINET, BENOIT CHAMPAGNE
     UNIVERSITY OF CALIFORNIA - SANTA BARBARA: BERNARD KIRTMAN
     INSTITUTE FOR MOLECULAR SCIENCE:
          KAZUYA ISHIMURA, MICHIO KATOUDA, AND SHIGERU NAGASE
     UNIVERSITY OF NOTRE DAME: ANNA POMOGAEVA, DAN CHIPMAN
     KYUSHU UNIVERSITY:
          HARUYUKI NAKANO,
          FENG LONG GU, JACEK KORCHOWIEC, MARCIN MAKOWSKI, AND YURIKO AOKI,
          HIROTOSHI MORI AND EISAKU MIYOSHI
     PENNSYLVANIA STATE UNIVERSITY:
          TZVETELIN IORDANOV, CHET SWALINA, JONATHAN SKONE,
          SHARON HAMMES-SCHIFFER
     WASEDA UNIVERSITY:
          MASATO KOBAYASHI, TOMOKO AKAMA, TSUGUKI TOUMA,
          TAKESHI YOSHIKAWA, YASUHIRO IKABATA, HIROMI NAKAI
     NANJING UNIVERSITY: SHUHUA LI
     UNIVERSITY OF NEBRASKA:
          PEIFENG SU, DEJUN SI, NANDUN THELLAMUREGE, YALI WANG, HUI LI
     UNIVERSITY OF ZURICH: ROBERTO PEVERATI, KIM BALDRIDGE
     N. COPERNICUS UNIVERSITY AND JACKSON STATE UNIVERSITY:
          MARIA BARYSZ
     UNIVERSITY OF COPENHAGEN: CASPER STEINMANN
     TOKYO INSTITUTE OF TECHNOLOGY: HIROYA NAKATA
     NAGOYA UNIVERSITY: YOSHIO NISHIMOTO, STEPHAN IRLE


 PARALLEL VERSION RUNNING ON       12 PROCESSORS IN       12 NODES.

 EXECUTION OF GAMESS BEGUN Thu Jan 17 18:42:07 2019

            ECHO OF THE FIRST FEW INPUT CARDS -
 INPUT CARD> $CONTRL SCFTYP=RHF CITYP=ALDET $END                                            
 INPUT CARD> $GUESS GUESS=HUCKEL $END                                                       
 INPUT CARD> $SYSTEM MWORDS=300 $END                                                        
 INPUT CARD> $CIDET SZ=0 GROUP=C2V NCORE=2 NACT=16 NELS=10 NSTGSS=6 $END                    
 INPUT CARD> $DATA                                                                          
 INPUT CARD>N2...HF...Double-zeta basis                                                     
 INPUT CARD>Cnv   2                                                                         
 INPUT CARD>                                                                                
 INPUT CARD>N     7.0    0.0      0.0     0.0                                               
 INPUT CARD>S   7                                                                           
 INPUT CARD>  1   5909.0000000              0.0011900                                       
 INPUT CARD>  2    887.5000000              0.0090990                                       
 INPUT CARD>  3    204.7000000              0.0441450                                       
 INPUT CARD>  4     59.8400000              0.1504640                                       
 INPUT CARD>  5     20.0000000              0.3567410                                       
 INPUT CARD>  6      7.1930000              0.4465330                                       
 INPUT CARD>  7      2.6860000              0.1456030                                       
 INPUT CARD>S   2                                                                           
 INPUT CARD>  1      7.1930000             -0.1604050                                       
 INPUT CARD>  2      0.7000000              1.0582150                                       
 INPUT CARD>S   1                                                                           
 INPUT CARD>  1      0.2133000              1.0000000                                       
 INPUT CARD>P   4                                                                           
 INPUT CARD>  1     26.7900000              0.0182540                                       
 INPUT CARD>  2      5.9560000              0.1164610                                       
 INPUT CARD>  3      1.7070000              0.3901780                                       
 INPUT CARD>  4      0.5314000              0.6371020                                       
 INPUT CARD>P   1                                                                           
 INPUT CARD>  1      0.1654000              1.0000000                                       
 INPUT CARD>                                                                                
 INPUT CARD>N     7.0    0.0      0.0     3.7                                               
 INPUT CARD>S   7                                                                           
 INPUT CARD>  1   5909.0000000              0.0011900                                       
 INPUT CARD>  2    887.5000000              0.0090990                                       
 INPUT CARD>  3    204.7000000              0.0441450                                       
 INPUT CARD>  4     59.8400000              0.1504640                                       
 INPUT CARD>  5     20.0000000              0.3567410                                       
 INPUT CARD>  6      7.1930000              0.4465330                                       
 INPUT CARD>  7      2.6860000              0.1456030                                       
 INPUT CARD>S   2                                                                           
 INPUT CARD>  1      7.1930000             -0.1604050                                       
 INPUT CARD>  2      0.7000000              1.0582150                                       
 INPUT CARD>S   1                                                                           
 INPUT CARD>  1      0.2133000              1.0000000                                       
 INPUT CARD>P   4                                                                           
 INPUT CARD>  1     26.7900000              0.0182540                                       
 INPUT CARD>  2      5.9560000              0.1164610                                       
 INPUT CARD>  3      1.7070000              0.3901780                                       
 INPUT CARD>  4      0.5314000              0.6371020                                       
 INPUT CARD>P   1                                                                           
  300000000 WORDS OF MEMORY AVAILABLE


     RUN TITLE
     ---------
 N2...HF...Double-zeta basis                                                     

 THE POINT GROUP OF THE MOLECULE IS CNV     
 THE ORDER OF THE PRINCIPAL AXIS IS     2

 ATOM      ATOMIC                      COORDINATES (BOHR)
           CHARGE         X                   Y                   Z
 N           7.0     0.0000000000        0.0000000000        0.0000000000
 N           7.0     0.0000000000        0.0000000000        6.9919861546

          INTERNUCLEAR DISTANCES (ANGS.)
          ------------------------------

                1 N          2 N     

   1 N       0.0000000    3.7000000  
   2 N       3.7000000    0.0000000  

  * ... LESS THAN  3.000


     ATOMIC BASIS SET
     ----------------
 THE CONTRACTED PRIMITIVE FUNCTIONS HAVE BEEN UNNORMALIZED
 THE CONTRACTED BASIS FUNCTIONS ARE NOW NORMALIZED TO UNITY

  SHELL TYPE  PRIMITIVE        EXPONENT          CONTRACTION COEFFICIENT(S)

 N         

      1   S       1          5909.0000000    0.001189999548
      1   S       2           887.5000000    0.009098996542
      1   S       3           204.7000000    0.044144983225
      1   S       4            59.8400000    0.150463942825
      1   S       5            20.0000000    0.356740864442
      1   S       6             7.1930000    0.446532830321
      1   S       7             2.6860000    0.145602944672

      2   S       8             7.1930000   -0.160405033446
      2   S       9             0.7000000    1.058215220651

      3   S      10             0.2133000    1.000000000000

      4   P      11            26.7900000    0.018253998243
      4   P      12             5.9560000    0.116460988791
      4   P      13             1.7070000    0.390177962446
      4   P      14             0.5314000    0.637101938680

      5   P      15             0.1654000    1.000000000000

 N         

      6   S      16          5909.0000000    0.001189999548
      6   S      17           887.5000000    0.009098996542
      6   S      18           204.7000000    0.044144983225
      6   S      19            59.8400000    0.150463942825
      6   S      20            20.0000000    0.356740864442
      6   S      21             7.1930000    0.446532830321
      6   S      22             2.6860000    0.145602944672

      7   S      23             7.1930000   -0.160405033446
      7   S      24             0.7000000    1.058215220651

      8   S      25             0.2133000    1.000000000000

      9   P      26            26.7900000    0.018253998243
      9   P      27             5.9560000    0.116460988791
      9   P      28             1.7070000    0.390177962446
      9   P      29             0.5314000    0.637101938680

     10   P      30             0.1654000    1.000000000000

 TOTAL NUMBER OF BASIS SET SHELLS             =   10
 NUMBER OF CARTESIAN GAUSSIAN BASIS FUNCTIONS =   18
 NUMBER OF ELECTRONS                          =   14
 CHARGE OF MOLECULE                           =    0
 SPIN MULTIPLICITY                            =    1
 NUMBER OF OCCUPIED ORBITALS (ALPHA)          =    7
 NUMBER OF OCCUPIED ORBITALS (BETA )          =    7
 TOTAL NUMBER OF ATOMS                        =    2
 THE NUCLEAR REPULSION ENERGY IS        7.0080230305

 THIS MOLECULE IS RECOGNIZED AS BEING LINEAR,
 ORBITAL LZ DEGENERACY TOLERANCE ETOLLZ= 1.00E-06

     $CONTRL OPTIONS
     ---------------
 SCFTYP=RHF          RUNTYP=ENERGY       EXETYP=RUN     
 MPLEVL=       0     CITYP =ALDET        CCTYP =NONE         VBTYP =NONE    
 DFTTYP=NONE         TDDFT =NONE    
 MULT  =       1     ICHARG=       0     NZVAR =       0     COORD =UNIQUE  
 PP    =NONE         RELWFN=NONE         LOCAL =NONE         NUMGRD=       F
 ISPHER=      -1     NOSYM =       0     MAXIT =      30     UNITS =ANGS    
 PLTORB=       F     MOLPLT=       F     AIMPAC=       F     FRIEND=        
 NPRINT=       7     IREST =       0     GEOM  =INPUT   
 NORMF =       0     NORMP =       0     ITOL  =      20     ICUT  =       9
 INTTYP=BEST         GRDTYP=BEST         QMTTOL= 1.0E-06

     $SYSTEM OPTIONS
     ---------------
  REPLICATED MEMORY=   300000000 WORDS (ON EVERY NODE).
 DISTRIBUTED MEMDDI=           0 MILLION WORDS IN AGGREGATE,
 MEMDDI DISTRIBUTED OVER  12 PROCESSORS IS           0 WORDS/PROCESSOR.
 TOTAL MEMORY REQUESTED ON EACH PROCESSOR=   300000000 WORDS.
 TIMLIM=      525600.00 MINUTES, OR     365.0 DAYS.
 PARALL= T  BALTYP=  DLB     KDIAG=    0  COREFL= F
 MXSEQ2=     300 MXSEQ3=     150  mem10=         0

          ----------------
          PROPERTIES INPUT
          ----------------

     MOMENTS            FIELD           POTENTIAL          DENSITY
 IEMOM =       1   IEFLD =       0   IEPOT =       0   IEDEN =       0
 WHERE =COMASS     WHERE =NUCLEI     WHERE =NUCLEI     WHERE =NUCLEI  
 OUTPUT=BOTH       OUTPUT=BOTH       OUTPUT=BOTH       OUTPUT=BOTH    
 IEMINT=       0   IEFINT=       0                     IEDINT=       0
                                                       MORB  =       0
          EXTRAPOLATION IN EFFECT
          SOSCF IN EFFECT
 ORBITAL PRINTING OPTION: NPREO=     1    18     2     1

     -------------------------------
     INTEGRAL TRANSFORMATION OPTIONS
     -------------------------------
     NWORD  =            0
     CUTOFF = 1.0E-09     MPTRAN =       0
     DIRTRF =       F     AOINTS =DUP     

          ----------------------
          INTEGRAL INPUT OPTIONS
          ----------------------
 NOPK  =       1 NORDER=       0 SCHWRZ=       F

     ------------------------------------------
     THE POINT GROUP IS CNV, NAXIS= 2, ORDER= 4
     ------------------------------------------

     DIMENSIONS OF THE SYMMETRY SUBSPACES ARE
 A1  =   10     A2  =    0     B1  =    4     B2  =    4

 ..... DONE SETTING UP THE RUN .....
 CPU     0: STEP CPU TIME=     0.03 TOTAL CPU TIME=        0.0 (    0.0 MIN)
 TOTAL WALL CLOCK TIME=        0.0 SECONDS, CPU UTILIZATION IS 100.00%

          ********************
          1 ELECTRON INTEGRALS
          ********************
 ...... END OF ONE-ELECTRON INTEGRALS ......
 CPU     0: STEP CPU TIME=     0.00 TOTAL CPU TIME=        0.0 (    0.0 MIN)
 TOTAL WALL CLOCK TIME=        0.1 SECONDS, CPU UTILIZATION IS  42.86%

          -------------
          GUESS OPTIONS
          -------------
          GUESS =HUCKEL            NORB  =       0          NORDER=       0
          MIX   =       F          PRTMO =       F          PUNMO =       F
          TOLZ  = 1.0E-08          TOLE  = 1.0E-05
          SYMDEN=       F          PURIFY=       F

 INITIAL GUESS ORBITALS GENERATED BY HUCKEL   ROUTINE.
 HUCKEL GUESS REQUIRES      4352 WORDS.

 SYMMETRIES FOR INITIAL GUESS ORBITALS FOLLOW.   BOTH SET(S).
     7 ORBITALS ARE OCCUPIED (    2 CORE ORBITALS).
     3=A1       4=A1       5=A1       6=B1       7=B2       8=B1       9=B2  
    10=A1      11=A1      12=A1      13=A1      14=A1      15=B1      16=B1  
    17=B2  
 ...... END OF INITIAL ORBITAL SELECTION ......
 CPU     0: STEP CPU TIME=     0.01 TOTAL CPU TIME=        0.0 (    0.0 MIN)
 TOTAL WALL CLOCK TIME=        0.1 SECONDS, CPU UTILIZATION IS  57.14%

                    ----------------------
                    AO INTEGRAL TECHNOLOGY
                    ----------------------
     S,P,L SHELL ROTATED AXIS INTEGRALS, REPROGRAMMED BY
        KAZUYA ISHIMURA (IMS) AND JOSE SIERRA (SYNSTAR).
     S,P,D,L SHELL ROTATED AXIS INTEGRALS PROGRAMMED BY
        KAZUYA ISHIMURA (INSTITUTE FOR MOLECULAR SCIENCE).
     S,P,D,F,G SHELL TO TOTAL QUARTET ANGULAR MOMENTUM SUM 5,
        ERIC PROGRAM BY GRAHAM FLETCHER (ELORET AND NASA ADVANCED
        SUPERCOMPUTING DIVISION, AMES RESEARCH CENTER).
     S,P,D,F,G,L SHELL GENERAL RYS QUADRATURE PROGRAMMED BY
        MICHEL DUPUIS (PACIFIC NORTHWEST NATIONAL LABORATORY).

          --------------------
          2 ELECTRON INTEGRALS
          --------------------

 THE -PK- OPTION IS OFF, THE INTEGRALS ARE NOT IN SUPERMATRIX FORM.
 STORING   15000 INTEGRALS/RECORD ON DISK, USING 12 BYTES/INTEGRAL.
 TWO ELECTRON INTEGRAL EVALUATION REQUIRES   89411 WORDS OF MEMORY.
 II,JST,KST,LST =  1  1  1  1 NREC =         1 INTLOC =    1
 II,JST,KST,LST =  2  1  1  1 NREC =         1 INTLOC =    2
 II,JST,KST,LST =  3  1  1  1 NREC =         1 INTLOC =    7
 II,JST,KST,LST =  4  1  1  1 NREC =         1 INTLOC =   22
 II,JST,KST,LST =  5  1  1  1 NREC =         1 INTLOC =   22
 II,JST,KST,LST =  6  1  1  1 NREC =         1 INTLOC =  109
 II,JST,KST,LST =  7  1  1  1 NREC =         1 INTLOC =  141
 II,JST,KST,LST =  8  1  1  1 NREC =         1 INTLOC =  141
 II,JST,KST,LST =  9  1  1  1 NREC =         1 INTLOC =  141
 II,JST,KST,LST = 10  1  1  1 NREC =         1 INTLOC =  236
 TOTAL NUMBER OF NONZERO TWO-ELECTRON INTEGRALS =                3513
         12 INTEGRAL RECORDS WERE STORED ON DISK FILE  8.
  ...... END OF TWO-ELECTRON INTEGRALS .....
 CPU     0: STEP CPU TIME=     0.02 TOTAL CPU TIME=        0.1 (    0.0 MIN)
 TOTAL WALL CLOCK TIME=        0.1 SECONDS, CPU UTILIZATION IS  66.67%

          --------------------------
                 RHF SCF CALCULATION
          --------------------------

     NUCLEAR ENERGY =         7.0080230305
     MAXIT =   30     NPUNCH=    2
     EXTRAP=T  DAMP=F  SHIFT=F  RSTRCT=F  DIIS=F  DEM=F  SOSCF=T
     DENSITY MATRIX CONV=  1.00E-06
     SOSCF WILL OPTIMIZE      77 ORBITAL ROTATIONS, SOGTOL=   0.250
     MEMORY REQUIRED FOR RHF ITERS=     32828 WORDS.

 ITER EX DEM     TOTAL ENERGY        E CHANGE  DENSITY CHANGE     ORB. GRAD
   1  0  0     -107.7146517926  -107.7146517926   0.277497886   0.000000000
          ---------------START SECOND ORDER SCF---------------
   2  1  0     -107.9044200396    -0.1897682470   0.118723805   0.062771686
   3  2  0     -107.9200299062    -0.0156098666   0.025702988   0.024188265
   4  3  0     -107.9229654922    -0.0029355859   0.003025256   0.001754364
   5  4  0     -107.9229818757    -0.0000163835   0.001022923   0.000389233
   6  5  0     -107.9229827873    -0.0000009116   0.000034808   0.000026509
   7  6  0     -107.9229827927    -0.0000000054   0.000015510   0.000006585
   8  7  0     -107.9229827931    -0.0000000004   0.000000964   0.000000488
   9  8  0     -107.9229827931    -0.0000000000   0.000000051   0.000000033

          -----------------
          DENSITY CONVERGED
          -----------------
     TIME TO FORM FOCK OPERATORS=       0.0 SECONDS (       0.0 SEC/ITER)
     TIME TO SOLVE SCF EQUATIONS=       0.0 SECONDS (       0.0 SEC/ITER)

 FINAL RHF ENERGY IS     -107.9229827931 AFTER   9 ITERATIONS

 LZ VALUE ANALYSIS FOR THE MOS
 ----------------------------------------
 MO     1 (    1) HAS LZ(WEIGHT)= 0.00(100.0%) 
 MO     2 (    2) HAS LZ(WEIGHT)= 0.00(100.0%) 
 MO     3 (    3) HAS LZ(WEIGHT)= 0.00(100.0%) 
 MO     4 (    4) HAS LZ(WEIGHT)= 0.00(100.0%) 
 MO     5 (    5) HAS LZ(WEIGHT)= 0.00(100.0%) 
 MO     6 (    6) HAS LZ(WEIGHT)=-1.00( 50.0%)  1.00( 50.0%) 
 MO     7 (    6) HAS LZ(WEIGHT)=-1.00( 50.0%)  1.00( 50.0%) 
 MO     8 (    7) HAS LZ(WEIGHT)=-1.00( 50.0%)  1.00( 50.0%) 
 MO     9 (    7) HAS LZ(WEIGHT)=-1.00( 50.0%)  1.00( 50.0%) 
 MO    10 (    8) HAS LZ(WEIGHT)= 0.00(100.0%) 
 MO    11 (    9) HAS LZ(WEIGHT)= 0.00(100.0%) 
 MO    12 (   10) HAS LZ(WEIGHT)=-1.00( 50.0%)  1.00( 50.0%) 
 MO    13 (   10) HAS LZ(WEIGHT)=-1.00( 50.0%)  1.00( 50.0%) 
 MO    14 (   11) HAS LZ(WEIGHT)=-1.00( 50.0%)  1.00( 50.0%) 
 MO    15 (   11) HAS LZ(WEIGHT)=-1.00( 50.0%)  1.00( 50.0%) 
 MO    16 (   12) HAS LZ(WEIGHT)= 0.00(100.0%) 
 MO    17 (   13) HAS LZ(WEIGHT)= 0.00(100.0%) 
 MO    18 (   14) HAS LZ(WEIGHT)= 0.00(100.0%) 

          ------------
          EIGENVECTORS
          ------------

                      1          2          3          4          5
                  -15.8280   -15.8280    -1.0351    -1.0258    -0.3380
                     A1         A1         A1         A1         A1  
    1  N  1  S    0.706978   0.706983  -0.173163   0.173766  -0.004324
    2  N  1  S   -0.000146  -0.000141   0.408869  -0.414378   0.023045
    3  N  1  S    0.000921   0.000886   0.358996  -0.354548  -0.008449
    4  N  1  X    0.000000   0.000000   0.000000   0.000000   0.000000
    5  N  1  Y    0.000000   0.000000   0.000000   0.000000   0.000000
    6  N  1  Z    0.000138   0.000084   0.002874   0.009861  -0.487845
    7  N  1  X    0.000000   0.000000   0.000000   0.000000   0.000000
    8  N  1  Y    0.000000   0.000000   0.000000   0.000000   0.000000
    9  N  1  Z   -0.000041  -0.000049   0.005270   0.006705  -0.302363
   10  N  2  S    0.706978  -0.706983  -0.173163  -0.173766  -0.004324
   11  N  2  S   -0.000146   0.000141   0.408869   0.414378   0.023045
   12  N  2  S    0.000921  -0.000886   0.358996   0.354548  -0.008449
   13  N  2  X    0.000000   0.000000   0.000000   0.000000   0.000000
   14  N  2  Y    0.000000   0.000000   0.000000   0.000000   0.000000
   15  N  2  Z   -0.000138   0.000084  -0.002874   0.009861   0.487845
   16  N  2  X    0.000000   0.000000   0.000000   0.000000   0.000000
   17  N  2  Y    0.000000   0.000000   0.000000   0.000000   0.000000
   18  N  2  Z    0.000041  -0.000049  -0.005270   0.006705   0.302363

                      6          7          8          9         10
                   -0.3278    -0.3278    -0.1849    -0.1849    -0.1665
                     B1         B2         B1         B2         A1  
    1  N  1  S    0.000000   0.000000   0.000000   0.000000  -0.005637
    2  N  1  S    0.000000   0.000000   0.000000   0.000000   0.020725
    3  N  1  S    0.000000   0.000000   0.000000   0.000000   0.001346
    4  N  1  X    0.504823   0.000000   0.508641   0.000000   0.000000
    5  N  1  Y    0.000000   0.504823   0.000000   0.508641   0.000000
    6  N  1  Z    0.000000   0.000000   0.000000   0.000000   0.516085
    7  N  1  X    0.294324   0.000000   0.293025   0.000000   0.000000
    8  N  1  Y    0.000000   0.294324   0.000000   0.293025   0.000000
    9  N  1  Z    0.000000   0.000000   0.000000   0.000000   0.294860
   10  N  2  S    0.000000   0.000000   0.000000   0.000000   0.005637
   11  N  2  S    0.000000   0.000000   0.000000   0.000000  -0.020725
   12  N  2  S    0.000000   0.000000   0.000000   0.000000  -0.001346
   13  N  2  X    0.504823   0.000000  -0.508641   0.000000   0.000000
   14  N  2  Y    0.000000   0.504823   0.000000  -0.508641   0.000000
   15  N  2  Z    0.000000   0.000000   0.000000   0.000000   0.516085
   16  N  2  X    0.294324   0.000000  -0.293025   0.000000   0.000000
   17  N  2  Y    0.000000   0.294324   0.000000  -0.293025   0.000000
   18  N  2  Z    0.000000   0.000000   0.000000   0.000000   0.294860

                     11         12         13         14         15
                    0.5763     0.6246     0.6246     0.6569     0.6569
                     A1         B1         B2         B1         B2  
    1  N  1  S   -0.014048   0.000000   0.000000   0.000000   0.000000
    2  N  1  S    0.134863   0.000000   0.000000   0.000000   0.000000
    3  N  1  S   -0.116776   0.000000   0.000000   0.000000   0.000000
    4  N  1  X    0.000000  -0.658928   0.000000   0.661629   0.000000
    5  N  1  Y    0.000000   0.000000  -0.658928   0.000000   0.661629
    6  N  1  Z    0.654613   0.000000   0.000000   0.000000   0.000000
    7  N  1  X    0.000000   0.768457   0.000000  -0.789330   0.000000
    8  N  1  Y    0.000000   0.000000   0.768457   0.000000  -0.789330
    9  N  1  Z   -0.703241   0.000000   0.000000   0.000000   0.000000
   10  N  2  S   -0.014048   0.000000   0.000000   0.000000   0.000000
   11  N  2  S    0.134863   0.000000   0.000000   0.000000   0.000000
   12  N  2  S   -0.116776   0.000000   0.000000   0.000000   0.000000
   13  N  2  X    0.000000  -0.658928   0.000000  -0.661629   0.000000
   14  N  2  Y    0.000000   0.000000  -0.658928   0.000000  -0.661629
   15  N  2  Z   -0.654613   0.000000   0.000000   0.000000   0.000000
   16  N  2  X    0.000000   0.768457   0.000000   0.789330   0.000000
   17  N  2  Y    0.000000   0.000000   0.768457   0.000000   0.789330
   18  N  2  Z    0.703241   0.000000   0.000000   0.000000   0.000000

                     16         17         18
                    0.7210     0.8911     0.9453
                     A1         A1         A1  
    1  N  1  S   -0.025827  -0.090248  -0.086406
    2  N  1  S    0.283594   1.097974   1.077840
    3  N  1  S   -0.266136  -1.091375  -1.084012
    4  N  1  X    0.000000   0.000000   0.000000
    5  N  1  Y    0.000000   0.000000   0.000000
    6  N  1  Z   -0.647061  -0.086913   0.186078
    7  N  1  X    0.000000   0.000000   0.000000
    8  N  1  Y    0.000000   0.000000   0.000000
    9  N  1  Z    0.817443   0.121642  -0.262615
   10  N  2  S    0.025827  -0.090248   0.086406
   11  N  2  S   -0.283594   1.097974  -1.077840
   12  N  2  S    0.266136  -1.091375   1.084012
   13  N  2  X    0.000000   0.000000   0.000000
   14  N  2  Y    0.000000   0.000000   0.000000
   15  N  2  Z   -0.647061   0.086913   0.186078
   16  N  2  X    0.000000   0.000000   0.000000
   17  N  2  Y    0.000000   0.000000   0.000000
   18  N  2  Z    0.817443  -0.121642  -0.262615
 ...... END OF RHF CALCULATION ......
 CPU     0: STEP CPU TIME=     0.00 TOTAL CPU TIME=        0.1 (    0.0 MIN)
 TOTAL WALL CLOCK TIME=        0.1 SECONDS, CPU UTILIZATION IS  54.55%

     ----------------------------------------------------------------
     PROPERTY VALUES FOR THE RHF   SELF-CONSISTENT FIELD WAVEFUNCTION
     ----------------------------------------------------------------

          -----------------
          ENERGY COMPONENTS
          -----------------

         WAVEFUNCTION NORMALIZATION =       1.0000000000

                ONE ELECTRON ENERGY =    -160.4411522365
                TWO ELECTRON ENERGY =      45.5101464130
           NUCLEAR REPULSION ENERGY =       7.0080230305
                                      ------------------
                       TOTAL ENERGY =    -107.9229827931

 ELECTRON-ELECTRON POTENTIAL ENERGY =      45.5101464130
  NUCLEUS-ELECTRON POTENTIAL ENERGY =    -267.8895770512
   NUCLEUS-NUCLEUS POTENTIAL ENERGY =       7.0080230305
                                      ------------------
             TOTAL POTENTIAL ENERGY =    -215.3714076077
               TOTAL KINETIC ENERGY =     107.4484248146
                 VIRIAL RATIO (V/T) =       2.0044166118

  ...... PI ENERGY ANALYSIS ......

 ENERGY ANALYSIS:
            FOCK ENERGY=    -69.4208590177
          BARE H ENERGY=   -160.4411522365
     ELECTRONIC ENERGY =   -114.9310056271
         KINETIC ENERGY=    107.4484248146
          N-N REPULSION=      7.0080230305
           TOTAL ENERGY=   -107.9229825966
        SIGMA PART(1+2)=   -103.1544576406
               (K,V1,2)=    101.0000479622   -239.1992682337     35.0447626308
           PI PART(1+2)=    -11.7765479865
               (K,V1,2)=      6.4483768524    -28.6903088175     10.4653839786
  SIGMA SKELETON, ERROR=    -96.1464346102      0.0000000000
             MIXED PART= 0.00000E+00 0.00000E+00 0.00000E+00 0.00000E+00
 ...... END OF PI ENERGY ANALYSIS ......

          ---------------------------------------
          MULLIKEN AND LOWDIN POPULATION ANALYSES
          ---------------------------------------

               ----- POPULATIONS IN EACH AO -----
                             MULLIKEN      LOWDIN
              1  N  1  S      2.00013     1.99716
              2  N  1  S      1.06894     1.03731
              3  N  1  S      0.93073     0.96510
              4  N  1  X      0.66670     0.64082
              5  N  1  Y      0.66670     0.64082
              6  N  1  Z      0.63514     0.60852
              7  N  1  X      0.33330     0.35918
              8  N  1  Y      0.33330     0.35918
              9  N  1  Z      0.36507     0.39192
             10  N  2  S      2.00013     1.99716
             11  N  2  S      1.06894     1.03731
             12  N  2  S      0.93073     0.96510
             13  N  2  X      0.66670     0.64082
             14  N  2  Y      0.66670     0.64082
             15  N  2  Z      0.63514     0.60852
             16  N  2  X      0.33330     0.35918
             17  N  2  Y      0.33330     0.35918
             18  N  2  Z      0.36507     0.39192

          ----- MULLIKEN ATOMIC OVERLAP POPULATIONS -----
          (OFF-DIAGONAL ELEMENTS NEED TO BE MULTIPLIED BY 2)

             1           2

    1    6.9626340
    2    0.0373660   6.9626340

          TOTAL MULLIKEN AND LOWDIN ATOMIC POPULATIONS
       ATOM         MULL.POP.    CHARGE          LOW.POP.     CHARGE
    1 N             7.000000    0.000000         7.000000    0.000000
    2 N             7.000000   -0.000000         7.000000   -0.000000

          ---------------------
          ELECTROSTATIC MOMENTS
          ---------------------

 POINT   1           X           Y           Z (BOHR)    CHARGE
                 0.000000    0.000000    3.495993       -0.00 (A.U.)
         DX          DY          DZ         /D/  (DEBYE)
     0.000000    0.000000   -0.000000    0.000000
 ...... END OF PROPERTY EVALUATION ......
 CPU     0: STEP CPU TIME=     0.00 TOTAL CPU TIME=        0.1 (    0.0 MIN)
 TOTAL WALL CLOCK TIME=        0.2 SECONDS, CPU UTILIZATION IS  37.50%

 DETERMINANT CI OPTIONS   NRNFG   NPFLG
 INTEGRAL TRANSFORMATION    1       0
 DIAGONALIZE HAMILTONIAN    1       0
 FORM 1E- DENSITY MATRIX    1       0
 FORM 2E- DENSITY MATRIX    0       0

     --------------------------------------------------
          AMES LABORATORY DETERMINANTAL FULL CI
     PROGRAM WRITTEN BY JOE IVANIC AND KLAUS RUEDENBERG
     --------------------------------------------------

 THE POINT GROUP                  =   C2V     
 THE STATE SYMMETRY               =   A1      
 NUMBER OF CORE ORBITALS          =    2
 NUMBER OF ACTIVE ORBITALS        =   16
 NUMBER OF ALPHA ELECTRONS        =    7 (   5 ACTIVE)
 NUMBER OF BETA ELECTRONS         =    7 (   5 ACTIVE)
 NUMBER OF OCCUPIED ORBITALS      =   18
 NUMBER OF CI STATES REQUESTED    =    1
 NUMBER OF CI STARTING VECTORS    =    6
 MAX. NO. OF CI EXPANSION VECTORS =   12
 SIZE OF INITIAL CI GUESS MATRIX  =  300
 MAX. NO. OF CI ITERS/STATE       =  100
 CI DIAGONALIZATION CRITERION     = 1.00E-06
 CI PROPERTIES WILL BE FOUND FOR ROOT NUMBER   1
 1E- DENSITY MATRIX OPTIONS ARE 1

 CORRELATION ENERGY ANALYSIS      =    F

 SYMMETRIES FOR THE   2 CORE,  16 ACTIVE ARE

     CORE= A1    A1  

   ACTIVE= A1    A1    A1    B1    B2    B1    B2    A1    A1    B1  
           B2    B1    B2    A1    A1    A1  

     --------------------------------------------
     PARTIAL TWO ELECTRON INTEGRAL TRANSFORMATION
     --------------------------------------------

 NUMBER OF CORE MOLECULAR ORBITALS     =    2
 NUMBER OF OCCUPIED MOLECULAR ORBITALS =   18
 TOTAL NUMBER OF MOLECULAR ORBITALS    =   18
 TOTAL NUMBER OF ATOMIC ORBITALS       =   18
 THRESHOLD FOR KEEPING TRANSFORMED 2E- INTEGRALS = 1.000E-09

 -------------------------------     ------------------------------
 DISTRIBUTED DATA TRANSFORMATION     PROGRAM WRITTEN BY G. FLETCHER
 -------------------------------     ------------------------------

 THE DISTRIBUTED MEMORY REQUIRED FOR THIS STEP IS MEMDDI=         1 MWORDS
 CREATING DISTRIBUTED STORAGE FOR [OCC OCC|OCC OCC] INTEGRALS
 DDI: Creating Array [0] - 171 x 171 = 29241 words.
 CREATING WORKSPACE OF SIZE VVOO
 DDI: Creating Array [1] - 171 x 171 = 29241 words.
 FOR   12 PROCESSORS, THE REPLICATED MEMORY NEEDED IS       58507 WORDS.

      DIRECT 4-INDEX TRANSFORMATION 
      SCHWARZ INEQUALITY TEST SKIPPED          0 INTEGRAL BLOCKS
 ----- FROZEN CORE ENERGY =       -92.8966967769
 ... END OF INTEGRAL TRANSFORMATION ...
 CPU     0: STEP CPU TIME=     0.01 TOTAL CPU TIME=        0.1 (    0.0 MIN)
 TOTAL WALL CLOCK TIME=        0.2 SECONDS, CPU UTILIZATION IS  33.33%

     --------------------------------------------------
          AMES LABORATORY DETERMINANTAL FULL CI
     PROGRAM WRITTEN BY JOE IVANIC AND KLAUS RUEDENBERG
     --------------------------------------------------

 THE NUMBER OF DETERMINANTS HAVING SPACE SYMMETRY A1 
 IN POINT GROUP C2V  WITH SZ=  0.0 IS        4777056
 THE DETERMINANT FULL CI REQUIRES       119865995 WORDS
 INITIAL CI VECTOR GUESS TIME  :          1.5
 INITIAL FULL CI ITERATION TIME:          5.7

 ITERATION      ENERGY           GRADIENT
     0     -108.7427034767     0.45678952
     1     -108.8427056030     0.18464735
     2     -108.8549341178     0.06918178
     3     -108.8564592369     0.03034891
     4     -108.8567600573     0.01534918
     5     -108.8568319224     0.00618910
     6     -108.8568425352     0.00220908
     7     -108.8568437398     0.00127322
     8     -108.8568441472     0.00105995
     9     -108.8568445692     0.00082553
    10     -108.8568447355     0.00051334
    11     -108.8568448017     0.00034627
    12     -108.8568448258     0.00020496
    13     -108.8568448331     0.00012349
    14     -108.8568448374     0.00008814
    15     -108.8568448400     0.00007584
    16     -108.8568448419     0.00006020
    17     -108.8568448431     0.00006757
    18     -108.8568448447     0.00007236
    19     -108.8568448461     0.00006883
    20     -108.8568448478     0.00006824
    21     -108.8568448507     0.00009487
    22     -108.8568448566     0.00013988
    23     -108.8568448753     0.00027260
    24     -108.8568449104     0.00043552
    25     -108.8568449754     0.00057698
    26     -108.8568454985     0.00190941
    27     -108.8568930081     0.01402009
    28     -108.8569351158     0.00741743
    29     -108.8569469246     0.00472274
    30     -108.8569520726     0.00307935
    31     -108.8569541857     0.00212192
    32     -108.8569554466     0.00159802
    33     -108.8569562517     0.00119518
    34     -108.8569565925     0.00067894
    35     -108.8569567190     0.00043265
    36     -108.8569567562     0.00031590
    37     -108.8569567724     0.00019441
    38     -108.8569567827     0.00012012
    39     -108.8569567872     0.00008613
    40     -108.8569567889     0.00004989
    41     -108.8569567896     0.00003674
    42     -108.8569567899     0.00002962
    43     -108.8569567901     0.00001913
    44     -108.8569567902     0.00001359
    45     -108.8569567902     0.00001122
    46     -108.8569567903     0.00000696
    47     -108.8569567903     0.00000469
    48     -108.8569567903     0.00000370
    49     -108.8569567903     0.00000218
    50     -108.8569567903     0.00000142
    51     -108.8569567903     0.00000104
    52     -108.8569567903     0.00000060

 CONVERGED STATE    1 ENERGY=     -108.8569567903 IN   52 ITERS

 ALL STATES CONVERGED.

 CI EIGENVECTORS WILL BE LABELED IN GROUP=C2V     
 PRINTING CI COEFFICIENTS LARGER THAN  0.050000

 STATE   1  ENERGY=      -108.8569567903  S=  0.00  SZ=  0.00  SPACE SYM=A1  

      ALPHA       |      BETA        | COEFFICIENT
------------------|------------------|------------
 1111100000000000 | 1111100000000000 |   0.2506076
 1110110000000000 | 1110110000000000 |  -0.2479353
 1111001000000000 | 1111001000000000 |  -0.2479353
 1110011000000000 | 1110011000000000 |   0.2453133
 1101100100000000 | 1101100100000000 |  -0.2345843
 1100110100000000 | 1100110100000000 |   0.2322094
 1101001100000000 | 1101001100000000 |   0.2322094
 1100011100000000 | 1100011100000000 |  -0.2298806
 1111010000000000 | 1110101000000000 |   0.1652772
 1110101000000000 | 1111010000000000 |   0.1652772
 1111000100000000 | 1101101000000000 |  -0.1604633
 1101101000000000 | 1111000100000000 |  -0.1604633
 1101110000000000 | 1110100100000000 |   0.1604633
 1110100100000000 | 1101110000000000 |   0.1604633
 1110010100000000 | 1100111000000000 |  -0.1588008
 1100111000000000 | 1110010100000000 |  -0.1588008
 1101011000000000 | 1110001100000000 |   0.1588008
 1110001100000000 | 1101011000000000 |   0.1588008
 1101010100000000 | 1100101100000000 |  -0.1547938
 1100101100000000 | 1101010100000000 |  -0.1547938
 1110110000000000 | 1111001000000000 |   0.0826549
 1111001000000000 | 1110110000000000 |   0.0826549
 1111100000000000 | 1110011000000000 |   0.0826223
 1110011000000000 | 1111100000000000 |   0.0826223
 1110110000000000 | 1101100100000000 |   0.0803346
 1101100100000000 | 1110110000000000 |   0.0803346
 1101100100000000 | 1111001000000000 |  -0.0803346
 1111001000000000 | 1101100100000000 |  -0.0803346
 1111100000000000 | 1100110100000000 |  -0.0801287
 1100110100000000 | 1111100000000000 |  -0.0801287
 1101001100000000 | 1111100000000000 |   0.0801287
 1111100000000000 | 1101001100000000 |   0.0801287
 1110011000000000 | 1101001100000000 |   0.0795029
 1101001100000000 | 1110011000000000 |   0.0795029
 1100110100000000 | 1110011000000000 |  -0.0795029
 1110011000000000 | 1100110100000000 |  -0.0795029
 1111001000000000 | 1100011100000000 |  -0.0792979
 1100011100000000 | 1111001000000000 |  -0.0792979
 1100011100000000 | 1110110000000000 |   0.0792979
 1110110000000000 | 1100011100000000 |   0.0792979
 1100110100000000 | 1101001100000000 |  -0.0774127
 1101001100000000 | 1100110100000000 |  -0.0774127
 1101100100000000 | 1100011100000000 |  -0.0773811
 1100011100000000 | 1101100100000000 |  -0.0773811
 ..... DONE WITH DETERMINANT CI COMPUTATION .....
 CPU     0: STEP CPU TIME=   135.62 TOTAL CPU TIME=      135.7 (    2.3 MIN)
 TOTAL WALL CLOCK TIME=      177.6 SECONDS, CPU UTILIZATION IS  76.42%

     ---------------------------
     ONE PARTICLE DENSITY MATRIX
     ---------------------------

 DENSITY MATRIX WILL BE SAVED FOR   1-TH STATE WITH S= 0.00

 CI EIGENSTATE   1 TOTAL ENERGY =     -108.8569567903

          NATURAL ORBITALS IN ATOMIC ORBITAL BASIS
          ----------------------------------------

                      1          2          3          4          5
                    2.0000     2.0000     1.9851     1.9846     1.0425
                     A1         A1         A1         A1         A1  
    1  N  1  S    0.706978   0.706983  -0.170773   0.171256  -0.001086
    2  N  1  S   -0.000146  -0.000141   0.380283  -0.383511   0.003821
    3  N  1  S    0.000921   0.000886   0.387194  -0.385383   0.001452
    4  N  1  X    0.000000   0.000000   0.000000   0.000000   0.000000
    5  N  1  Y    0.000000   0.000000   0.000000   0.000000   0.000000
    6  N  1  Z    0.000138   0.000084  -0.001709  -0.001644  -0.552291
    7  N  1  X    0.000000   0.000000   0.000000   0.000000   0.000000
    8  N  1  Y    0.000000   0.000000   0.000000   0.000000   0.000000
    9  N  1  Z   -0.000041  -0.000049   0.001804   0.002331  -0.228850
   10  N  2  S    0.706978  -0.706983  -0.170773  -0.171256  -0.001086
   11  N  2  S   -0.000146   0.000141   0.380283   0.383511   0.003821
   12  N  2  S    0.000921  -0.000886   0.387194   0.385383   0.001452
   13  N  2  X    0.000000   0.000000   0.000000   0.000000   0.000000
   14  N  2  Y    0.000000   0.000000   0.000000   0.000000   0.000000
   15  N  2  Z   -0.000138   0.000084   0.001709  -0.001644   0.552291
   16  N  2  X    0.000000   0.000000   0.000000   0.000000   0.000000
   17  N  2  Y    0.000000   0.000000   0.000000   0.000000   0.000000
   18  N  2  Z    0.000041  -0.000049  -0.001804   0.002331   0.228850

                      6          7          8          9         10
                    1.0027     1.0027     0.9883     0.9883     0.9486
                     B2         B1         B1         B2         A1  
    1  N  1  S    0.000000   0.000000   0.000000   0.000000  -0.001268
    2  N  1  S    0.000000   0.000000   0.000000   0.000000   0.003813
    3  N  1  S    0.000000   0.000000   0.000000   0.000000   0.001655
    4  N  1  X    0.000000   0.558626   0.561463   0.000000   0.000000
    5  N  1  Y    0.558626   0.000000   0.000000   0.561463   0.000000
    6  N  1  Z    0.000000   0.000000   0.000000   0.000000   0.568001
    7  N  1  X    0.000000   0.228428   0.226943   0.000000   0.000000
    8  N  1  Y    0.228428   0.000000   0.000000   0.226943   0.000000
    9  N  1  Z    0.000000   0.000000   0.000000   0.000000   0.226082
   10  N  2  S    0.000000   0.000000   0.000000   0.000000   0.001268
   11  N  2  S    0.000000   0.000000   0.000000   0.000000  -0.003813
   12  N  2  S    0.000000   0.000000   0.000000   0.000000  -0.001655
   13  N  2  X    0.000000   0.558626  -0.561463   0.000000   0.000000
   14  N  2  Y    0.558626   0.000000   0.000000  -0.561463   0.000000
   15  N  2  Z    0.000000   0.000000   0.000000   0.000000   0.568001
   16  N  2  X    0.000000   0.228428  -0.226943   0.000000   0.000000
   17  N  2  Y    0.228428   0.000000   0.000000  -0.226943   0.000000
   18  N  2  Z    0.000000   0.000000   0.000000   0.000000   0.226082

                     11         12         13         14         15
                    0.0112     0.0106     0.0066     0.0060     0.0060
                     A1         A1         A1         B2         B1  
    1  N  1  S   -0.095133   0.094539   0.011463   0.000000   0.000000
    2  N  1  S    1.103718  -1.115050  -0.169159   0.000000   0.000000
    3  N  1  S   -1.072573   1.092353   0.182623   0.000000   0.000000
    4  N  1  X    0.000000   0.000000   0.000000   0.000000  -0.613978
    5  N  1  Y    0.000000   0.000000   0.000000  -0.613978   0.000000
    6  N  1  Z    0.079216   0.068088   0.602304   0.000000   0.000000
    7  N  1  X    0.000000   0.000000   0.000000   0.000000   0.790552
    8  N  1  Y    0.000000   0.000000   0.000000   0.790552   0.000000
    9  N  1  Z   -0.081912  -0.078411  -0.736009   0.000000   0.000000
   10  N  2  S   -0.095133  -0.094539   0.011463   0.000000   0.000000
   11  N  2  S    1.103718   1.115050  -0.169159   0.000000   0.000000
   12  N  2  S   -1.072573  -1.092353   0.182623   0.000000   0.000000
   13  N  2  X    0.000000   0.000000   0.000000   0.000000  -0.613978
   14  N  2  Y    0.000000   0.000000   0.000000  -0.613978   0.000000
   15  N  2  Z   -0.079216   0.068088  -0.602304   0.000000   0.000000
   16  N  2  X    0.000000   0.000000   0.000000   0.000000   0.790552
   17  N  2  Y    0.000000   0.000000   0.000000   0.790552   0.000000
   18  N  2  Z    0.081912  -0.078411   0.736009   0.000000   0.000000

                     16         17         18
                    0.0058     0.0058     0.0051
                     B1         B2         A1  
    1  N  1  S    0.000000   0.000000   0.009573
    2  N  1  S    0.000000   0.000000  -0.154503
    3  N  1  S    0.000000   0.000000   0.172797
    4  N  1  X    0.617436   0.000000   0.000000
    5  N  1  Y    0.000000   0.617436   0.000000
    6  N  1  Z    0.000000   0.000000  -0.626491
    7  N  1  X   -0.810803   0.000000   0.000000
    8  N  1  Y    0.000000  -0.810803   0.000000
    9  N  1  Z    0.000000   0.000000   0.875728
   10  N  2  S    0.000000   0.000000  -0.009573
   11  N  2  S    0.000000   0.000000   0.154503
   12  N  2  S    0.000000   0.000000  -0.172797
   13  N  2  X   -0.617436   0.000000   0.000000
   14  N  2  Y    0.000000  -0.617436   0.000000
   15  N  2  Z    0.000000   0.000000  -0.626491
   16  N  2  X    0.810803   0.000000   0.000000
   17  N  2  Y    0.000000   0.810803   0.000000
   18  N  2  Z    0.000000   0.000000   0.875728
 ..... DONE WITH ONE PARTICLE DENSITY MATRIX .....
 CPU     0: STEP CPU TIME=     1.00 TOTAL CPU TIME=      136.7 (    2.3 MIN)
 TOTAL WALL CLOCK TIME=      178.6 SECONDS, CPU UTILIZATION IS  76.55%

     --------------------------------------------------------
     ALDET CI PROPERTIES...FOR THE WAVEFUNCTION OF STATE    1
               USING THE EXPECTATION VALUE DENSITY
     --------------------------------------------------------

          -----------------
          ENERGY COMPONENTS
          -----------------

         WAVEFUNCTION NORMALIZATION =       1.0000000000

                ONE ELECTRON ENERGY =    -161.6853396028
                TWO ELECTRON ENERGY =      45.8203597821
           NUCLEAR REPULSION ENERGY =       7.0080230305
                                      ------------------
                       TOTAL ENERGY =    -108.8569567903

 ELECTRON-ELECTRON POTENTIAL ENERGY =      45.8203597821
  NUCLEUS-ELECTRON POTENTIAL ENERGY =    -270.3965176520
   NUCLEUS-NUCLEUS POTENTIAL ENERGY =       7.0080230305
                                      ------------------
             TOTAL POTENTIAL ENERGY =    -217.5681348395
               TOTAL KINETIC ENERGY =     108.7111780492
                 VIRIAL RATIO (V/T) =       2.0013409729

          ---------------------------------------
          MULLIKEN AND LOWDIN POPULATION ANALYSES
          ---------------------------------------

               ----- POPULATIONS IN EACH AO -----
                             MULLIKEN      LOWDIN
              1  N  1  S      2.00012     1.99634
              2  N  1  S      0.98054     0.98292
              3  N  1  S      1.01492     1.01619
              4  N  1  X      0.75977     0.72080
              5  N  1  Y      0.75977     0.72080
              6  N  1  Z      0.75931     0.72030
              7  N  1  X      0.24164     0.28061
              8  N  1  Y      0.24164     0.28061
              9  N  1  Z      0.24228     0.28143
             10  N  2  S      2.00012     1.99634
             11  N  2  S      0.98054     0.98292
             12  N  2  S      1.01492     1.01619
             13  N  2  X      0.75977     0.72080
             14  N  2  Y      0.75977     0.72080
             15  N  2  Z      0.75931     0.72030
             16  N  2  X      0.24164     0.28061
             17  N  2  Y      0.24164     0.28061
             18  N  2  Z      0.24228     0.28143

          ----- MULLIKEN ATOMIC OVERLAP POPULATIONS -----
          (OFF-DIAGONAL ELEMENTS NEED TO BE MULTIPLIED BY 2)

             1           2

    1    6.9988148
    2    0.0011852   6.9988148

          TOTAL MULLIKEN AND LOWDIN ATOMIC POPULATIONS
       ATOM         MULL.POP.    CHARGE          LOW.POP.     CHARGE
    1 N             7.000000    0.000000         7.000000    0.000000
    2 N             7.000000    0.000000         7.000000    0.000000

          ---------------------
          ELECTROSTATIC MOMENTS
          ---------------------

 POINT   1           X           Y           Z (BOHR)    CHARGE
                 0.000000    0.000000    3.495993        0.00 (A.U.)
         DX          DY          DZ         /D/  (DEBYE)
     0.000000    0.000000   -0.000000    0.000000
 ...... END OF PROPERTY EVALUATION ......
 CPU     0: STEP CPU TIME=     0.00 TOTAL CPU TIME=      136.7 (    2.3 MIN)
 TOTAL WALL CLOCK TIME=      179.0 SECONDS, CPU UTILIZATION IS  76.35%
             119866847  WORDS OF DYNAMIC MEMORY USED
 EXECUTION OF GAMESS TERMINATED NORMALLY Thu Jan 17 18:45:06 2019
 DDI: 305760 bytes (0.3 MB / 0 MWords) used by master data server.

 ----------------------------------------
 CPU timing information for all processes
 ========================================
 0: 129.160 + 7.684 = 136.844
 1: 129.280 + 10.748 = 140.28
 2: 128.968 + 9.168 = 138.136
 3: 128.236 + 10.424 = 138.660
 4: 128.368 + 10.68 = 138.436
 5: 128.288 + 9.796 = 138.84
 6: 128.96 + 9.420 = 137.516
 7: 128.136 + 9.828 = 137.964
 8: 128.644 + 8.840 = 137.484
 9: 127.208 + 8.356 = 135.564
 10: 127.988 + 9.784 = 137.772
 11: 128.908 + 7.956 = 136.864
 12: 0.508 + 5.360 = 5.868
 13: 0.04 + 0.04 = 0.08
 14: 0.04 + 0.04 = 0.08
 15: 0.00 + 0.08 = 0.08
 16: 0.04 + 0.04 = 0.08
 17: 0.04 + 0.04 = 0.08
 18: 0.08 + 0.00 = 0.08
 19: 0.04 + 0.04 = 0.08
 20: 0.08 + 0.00 = 0.08
 21: 0.08 + 0.00 = 0.08
 22: 0.04 + 0.04 = 0.08
 23: 0.08 + 0.00 = 0.08
 ----------------------------------------
 ddikick.x: exited gracefully.
unset echo
----- accounting info -----
Files used on the master node localhost were:
-rw-rw-r-- 1 maho maho    13429 Jan 17 18:45 ./N2.SV/3.7/N2.SV.fullCI.3.7.gamess.dat
-rw------- 1 maho maho     1813 Jan 17 18:42 ./N2.SV/3.7/N2.SV.fullCI.3.7.gamess.F05
-rw-rw-r-- 1 maho maho   180016 Jan 17 18:42 ./N2.SV/3.7/N2.SV.fullCI.3.7.gamess.F08
-rw-rw-r-- 1 maho maho     1376 Jan 17 18:42 ./N2.SV/3.7/N2.SV.fullCI.3.7.gamess.F09
-rw-rw-r-- 1 maho maho  1865040 Jan 17 18:45 ./N2.SV/3.7/N2.SV.fullCI.3.7.gamess.F10
-rw-rw-r-- 1 maho maho 38216480 Jan 17 18:45 ./N2.SV/3.7/N2.SV.fullCI.3.7.gamess.F12
-rw------- 1 maho maho     1813 Jan 17 18:42 ./N2.SV/3.7/N2.SV.fullCI.3.7.gamess.inp
-rw-rw-r-- 1 maho maho    49397 Jan 17 18:45 ./N2.SV/3.7/N2.SV.fullCI.3.7.gamess.log
ls: No match.
ls: No match.
ls: No match.
Thu Jan 17 18:45:09 JST 2019
0.0u 0.0s 3:03.46 0.0% 0+0k 0+8io 0pf+0w
