----- GAMESS execution script 'rungms' -----
This job is running on host localhost
under operating system Linux at Thu Jan 17 17:40:43 JST 2019
Available scratch disk space (Kbyte units) at beginning of the job is
Filesystem     1K-blocks      Used Available Use% Mounted on
/dev/sda1      895286904 141741168 708044708  17% /
GAMESS temporary binary files will be written to .
GAMESS supplementary output files will be written to .
Copying input file N2.SV/1.0/N2.SV.fullCI.1.0.gamess.inp to your run's scratch directory...
cp N2.SV/1.0/N2.SV.fullCI.1.0.gamess.inp ./N2.SV/1.0/N2.SV.fullCI.1.0.gamess.F05
unset echo
/work/pubchem/pm6/pkg/gamess_intel/ddikick.x /work/pubchem/pm6/pkg/gamess_intel/gamess.00.x N2.SV/1.0/N2.SV.fullCI.1.0.gamess -ddi 12 12 localhost localhost localhost localhost localhost localhost localhost localhost localhost localhost localhost localhost -scr .

 Distributed Data Interface kickoff program.
 Initiating 12 compute processes on 12 nodes to run the following command:
 /work/pubchem/pm6/pkg/gamess_intel/gamess.00.x N2.SV/1.0/N2.SV.fullCI.1.0.gamess 

          ******************************************************
          *         GAMESS VERSION =  5 DEC 2014 (R1)          *
          *             FROM IOWA STATE UNIVERSITY             *
          * M.W.SCHMIDT, K.K.BALDRIDGE, J.A.BOATZ, S.T.ELBERT, *
          *   M.S.GORDON, J.H.JENSEN, S.KOSEKI, N.MATSUNAGA,   *
          *          K.A.NGUYEN, S.J.SU, T.L.WINDUS,           *
          *       TOGETHER WITH M.DUPUIS, J.A.MONTGOMERY       *
          *         J.COMPUT.CHEM.  14, 1347-1363(1993)        *
          **************** 64 BIT INTEL VERSION ****************

  SINCE 1993, STUDENTS AND POSTDOCS WORKING AT IOWA STATE UNIVERSITY
  AND ALSO IN THEIR VARIOUS JOBS AFTER LEAVING ISU HAVE MADE IMPORTANT
  CONTRIBUTIONS TO THE CODE:
     IVANA ADAMOVIC, CHRISTINE AIKENS, YURI ALEXEEV, POOJA ARORA,
     ANDREY ASADCHEV, ROB BELL, PRADIPTA BANDYOPADHYAY, JONATHAN BENTZ,
     BRETT BODE, KURT BRORSEN, CALEB CARLIN, GALINA CHABAN, WEI CHEN,
     CHEOL HO CHOI, PAUL DAY, ALBERT DEFUSCO, NUWAN DESILVA, TIM DUDLEY,
     DMITRI FEDOROV, GRAHAM FLETCHER, MARK FREITAG, KURT GLAESEMANN,
     DAN KEMP, GRANT MERRILL, NORIYUKI MINEZAWA, JONATHAN MULLIN,
     TAKESHI NAGATA, SEAN NEDD, HEATHER NETZLOFF, BOSILJKA NJEGIC, RYAN OLSON,
     MIKE PAK, SPENCER PRUITT, LUKE ROSKOP, JIM SHOEMAKER, LYUDMILA SLIPCHENKO,
     TONY SMITH, SAROM SOK, JIE SONG, TETSUYA TAKETSUGU, SIMON WEBB,
     PENG XU, SOOHAENG YOO, FEDERICO ZAHARIEV

  ADDITIONAL CODE HAS BEEN PROVIDED BY COLLABORATORS IN OTHER GROUPS:
     IOWA STATE UNIVERSITY:
          JOE IVANIC, AARON WEST, LAIMUTIS BYTAUTAS, KLAUS RUEDENBERG
     UNIVERSITY OF TOKYO: KIMIHIKO HIRAO, TAKAHITO NAKAJIMA,
          TAKAO TSUNEDA, MUNEAKI KAMIYA, SUSUMU YANAGISAWA,
          KIYOSHI YAGI, MAHITO CHIBA, SEIKEN TOKURA, NAOAKI KAWAKAMI
     UNIVERSITY OF AARHUS: FRANK JENSEN
     UNIVERSITY OF IOWA: VISVALDAS KAIRYS, HUI LI
     NATIONAL INST. OF STANDARDS AND TECHNOLOGY: WALT STEVENS, DAVID GARMER
     UNIVERSITY OF PISA: BENEDETTA MENNUCCI, JACOPO TOMASI
     UNIVERSITY OF MEMPHIS: HENRY KURTZ, PRAKASHAN KORAMBATH
     UNIVERSITY OF ALBERTA: TOBY ZENG, MARIUSZ KLOBUKOWSKI
     UNIVERSITY OF NEW ENGLAND: MARK SPACKMAN
     MIE UNIVERSITY: HIROAKI UMEDA
     NAT. INST. OF ADVANCED INDUSTRIAL SCIENCE AND TECHNOLOGY: KAZUO KITAURA
     MICHIGAN STATE UNIVERSITY:
          KAROL KOWALSKI, MARTA WLOCH, JEFFREY GOUR, JESSE LUTZ,
          WEI LI, PIOTR PIECUCH
     UNIVERSITY OF SILESIA: MONIKA MUSIAL, STANISLAW KUCHARSKI
     FACULTES UNIVERSITAIRES NOTRE-DAME DE LA PAIX:
          OLIVIER QUINET, BENOIT CHAMPAGNE
     UNIVERSITY OF CALIFORNIA - SANTA BARBARA: BERNARD KIRTMAN
     INSTITUTE FOR MOLECULAR SCIENCE:
          KAZUYA ISHIMURA, MICHIO KATOUDA, AND SHIGERU NAGASE
     UNIVERSITY OF NOTRE DAME: ANNA POMOGAEVA, DAN CHIPMAN
     KYUSHU UNIVERSITY:
          HARUYUKI NAKANO,
          FENG LONG GU, JACEK KORCHOWIEC, MARCIN MAKOWSKI, AND YURIKO AOKI,
          HIROTOSHI MORI AND EISAKU MIYOSHI
     PENNSYLVANIA STATE UNIVERSITY:
          TZVETELIN IORDANOV, CHET SWALINA, JONATHAN SKONE,
          SHARON HAMMES-SCHIFFER
     WASEDA UNIVERSITY:
          MASATO KOBAYASHI, TOMOKO AKAMA, TSUGUKI TOUMA,
          TAKESHI YOSHIKAWA, YASUHIRO IKABATA, HIROMI NAKAI
     NANJING UNIVERSITY: SHUHUA LI
     UNIVERSITY OF NEBRASKA:
          PEIFENG SU, DEJUN SI, NANDUN THELLAMUREGE, YALI WANG, HUI LI
     UNIVERSITY OF ZURICH: ROBERTO PEVERATI, KIM BALDRIDGE
     N. COPERNICUS UNIVERSITY AND JACKSON STATE UNIVERSITY:
          MARIA BARYSZ
     UNIVERSITY OF COPENHAGEN: CASPER STEINMANN
     TOKYO INSTITUTE OF TECHNOLOGY: HIROYA NAKATA
     NAGOYA UNIVERSITY: YOSHIO NISHIMOTO, STEPHAN IRLE


 PARALLEL VERSION RUNNING ON       12 PROCESSORS IN       12 NODES.

 EXECUTION OF GAMESS BEGUN Thu Jan 17 17:40:44 2019

            ECHO OF THE FIRST FEW INPUT CARDS -
 INPUT CARD> $CONTRL SCFTYP=RHF CITYP=ALDET $END                                            
 INPUT CARD> $GUESS GUESS=HUCKEL $END                                                       
 INPUT CARD> $SYSTEM MWORDS=300 $END                                                        
 INPUT CARD> $CIDET SZ=0 GROUP=C2V NCORE=2 NACT=16 NELS=10 NSTGSS=6 $END                    
 INPUT CARD> $DATA                                                                          
 INPUT CARD>N2...HF...Double-zeta basis                                                     
 INPUT CARD>Cnv   2                                                                         
 INPUT CARD>                                                                                
 INPUT CARD>N     7.0    0.0      0.0     0.0                                               
 INPUT CARD>S   7                                                                           
 INPUT CARD>  1   5909.0000000              0.0011900                                       
 INPUT CARD>  2    887.5000000              0.0090990                                       
 INPUT CARD>  3    204.7000000              0.0441450                                       
 INPUT CARD>  4     59.8400000              0.1504640                                       
 INPUT CARD>  5     20.0000000              0.3567410                                       
 INPUT CARD>  6      7.1930000              0.4465330                                       
 INPUT CARD>  7      2.6860000              0.1456030                                       
 INPUT CARD>S   2                                                                           
 INPUT CARD>  1      7.1930000             -0.1604050                                       
 INPUT CARD>  2      0.7000000              1.0582150                                       
 INPUT CARD>S   1                                                                           
 INPUT CARD>  1      0.2133000              1.0000000                                       
 INPUT CARD>P   4                                                                           
 INPUT CARD>  1     26.7900000              0.0182540                                       
 INPUT CARD>  2      5.9560000              0.1164610                                       
 INPUT CARD>  3      1.7070000              0.3901780                                       
 INPUT CARD>  4      0.5314000              0.6371020                                       
 INPUT CARD>P   1                                                                           
 INPUT CARD>  1      0.1654000              1.0000000                                       
 INPUT CARD>                                                                                
 INPUT CARD>N     7.0    0.0      0.0     1.0                                               
 INPUT CARD>S   7                                                                           
 INPUT CARD>  1   5909.0000000              0.0011900                                       
 INPUT CARD>  2    887.5000000              0.0090990                                       
 INPUT CARD>  3    204.7000000              0.0441450                                       
 INPUT CARD>  4     59.8400000              0.1504640                                       
 INPUT CARD>  5     20.0000000              0.3567410                                       
 INPUT CARD>  6      7.1930000              0.4465330                                       
 INPUT CARD>  7      2.6860000              0.1456030                                       
 INPUT CARD>S   2                                                                           
 INPUT CARD>  1      7.1930000             -0.1604050                                       
 INPUT CARD>  2      0.7000000              1.0582150                                       
 INPUT CARD>S   1                                                                           
 INPUT CARD>  1      0.2133000              1.0000000                                       
 INPUT CARD>P   4                                                                           
 INPUT CARD>  1     26.7900000              0.0182540                                       
 INPUT CARD>  2      5.9560000              0.1164610                                       
 INPUT CARD>  3      1.7070000              0.3901780                                       
 INPUT CARD>  4      0.5314000              0.6371020                                       
 INPUT CARD>P   1                                                                           
  300000000 WORDS OF MEMORY AVAILABLE


     RUN TITLE
     ---------
 N2...HF...Double-zeta basis                                                     

 THE POINT GROUP OF THE MOLECULE IS CNV     
 THE ORDER OF THE PRINCIPAL AXIS IS     2

 ATOM      ATOMIC                      COORDINATES (BOHR)
           CHARGE         X                   Y                   Z
 N           7.0     0.0000000000        0.0000000000        0.0000000000
 N           7.0     0.0000000000        0.0000000000        1.8897259877

          INTERNUCLEAR DISTANCES (ANGS.)
          ------------------------------

                1 N          2 N     

   1 N       0.0000000    1.0000000 *
   2 N       1.0000000 *  0.0000000  

  * ... LESS THAN  3.000


     ATOMIC BASIS SET
     ----------------
 THE CONTRACTED PRIMITIVE FUNCTIONS HAVE BEEN UNNORMALIZED
 THE CONTRACTED BASIS FUNCTIONS ARE NOW NORMALIZED TO UNITY

  SHELL TYPE  PRIMITIVE        EXPONENT          CONTRACTION COEFFICIENT(S)

 N         

      1   S       1          5909.0000000    0.001189999548
      1   S       2           887.5000000    0.009098996542
      1   S       3           204.7000000    0.044144983225
      1   S       4            59.8400000    0.150463942825
      1   S       5            20.0000000    0.356740864442
      1   S       6             7.1930000    0.446532830321
      1   S       7             2.6860000    0.145602944672

      2   S       8             7.1930000   -0.160405033446
      2   S       9             0.7000000    1.058215220651

      3   S      10             0.2133000    1.000000000000

      4   P      11            26.7900000    0.018253998243
      4   P      12             5.9560000    0.116460988791
      4   P      13             1.7070000    0.390177962446
      4   P      14             0.5314000    0.637101938680

      5   P      15             0.1654000    1.000000000000

 N         

      6   S      16          5909.0000000    0.001189999548
      6   S      17           887.5000000    0.009098996542
      6   S      18           204.7000000    0.044144983225
      6   S      19            59.8400000    0.150463942825
      6   S      20            20.0000000    0.356740864442
      6   S      21             7.1930000    0.446532830321
      6   S      22             2.6860000    0.145602944672

      7   S      23             7.1930000   -0.160405033446
      7   S      24             0.7000000    1.058215220651

      8   S      25             0.2133000    1.000000000000

      9   P      26            26.7900000    0.018253998243
      9   P      27             5.9560000    0.116460988791
      9   P      28             1.7070000    0.390177962446
      9   P      29             0.5314000    0.637101938680

     10   P      30             0.1654000    1.000000000000

 TOTAL NUMBER OF BASIS SET SHELLS             =   10
 NUMBER OF CARTESIAN GAUSSIAN BASIS FUNCTIONS =   18
 NUMBER OF ELECTRONS                          =   14
 CHARGE OF MOLECULE                           =    0
 SPIN MULTIPLICITY                            =    1
 NUMBER OF OCCUPIED ORBITALS (ALPHA)          =    7
 NUMBER OF OCCUPIED ORBITALS (BETA )          =    7
 TOTAL NUMBER OF ATOMS                        =    2
 THE NUCLEAR REPULSION ENERGY IS       25.9296852128

 THIS MOLECULE IS RECOGNIZED AS BEING LINEAR,
 ORBITAL LZ DEGENERACY TOLERANCE ETOLLZ= 1.00E-06

     $CONTRL OPTIONS
     ---------------
 SCFTYP=RHF          RUNTYP=ENERGY       EXETYP=RUN     
 MPLEVL=       0     CITYP =ALDET        CCTYP =NONE         VBTYP =NONE    
 DFTTYP=NONE         TDDFT =NONE    
 MULT  =       1     ICHARG=       0     NZVAR =       0     COORD =UNIQUE  
 PP    =NONE         RELWFN=NONE         LOCAL =NONE         NUMGRD=       F
 ISPHER=      -1     NOSYM =       0     MAXIT =      30     UNITS =ANGS    
 PLTORB=       F     MOLPLT=       F     AIMPAC=       F     FRIEND=        
 NPRINT=       7     IREST =       0     GEOM  =INPUT   
 NORMF =       0     NORMP =       0     ITOL  =      20     ICUT  =       9
 INTTYP=BEST         GRDTYP=BEST         QMTTOL= 1.0E-06

     $SYSTEM OPTIONS
     ---------------
  REPLICATED MEMORY=   300000000 WORDS (ON EVERY NODE).
 DISTRIBUTED MEMDDI=           0 MILLION WORDS IN AGGREGATE,
 MEMDDI DISTRIBUTED OVER  12 PROCESSORS IS           0 WORDS/PROCESSOR.
 TOTAL MEMORY REQUESTED ON EACH PROCESSOR=   300000000 WORDS.
 TIMLIM=      525600.00 MINUTES, OR     365.0 DAYS.
 PARALL= T  BALTYP=  DLB     KDIAG=    0  COREFL= F
 MXSEQ2=     300 MXSEQ3=     150  mem10=         0

          ----------------
          PROPERTIES INPUT
          ----------------

     MOMENTS            FIELD           POTENTIAL          DENSITY
 IEMOM =       1   IEFLD =       0   IEPOT =       0   IEDEN =       0
 WHERE =COMASS     WHERE =NUCLEI     WHERE =NUCLEI     WHERE =NUCLEI  
 OUTPUT=BOTH       OUTPUT=BOTH       OUTPUT=BOTH       OUTPUT=BOTH    
 IEMINT=       0   IEFINT=       0                     IEDINT=       0
                                                       MORB  =       0
          EXTRAPOLATION IN EFFECT
          SOSCF IN EFFECT
 ORBITAL PRINTING OPTION: NPREO=     1    18     2     1

     -------------------------------
     INTEGRAL TRANSFORMATION OPTIONS
     -------------------------------
     NWORD  =            0
     CUTOFF = 1.0E-09     MPTRAN =       0
     DIRTRF =       F     AOINTS =DUP     

          ----------------------
          INTEGRAL INPUT OPTIONS
          ----------------------
 NOPK  =       1 NORDER=       0 SCHWRZ=       F

     ------------------------------------------
     THE POINT GROUP IS CNV, NAXIS= 2, ORDER= 4
     ------------------------------------------

     DIMENSIONS OF THE SYMMETRY SUBSPACES ARE
 A1  =   10     A2  =    0     B1  =    4     B2  =    4

 ..... DONE SETTING UP THE RUN .....
 CPU     0: STEP CPU TIME=     0.02 TOTAL CPU TIME=        0.0 (    0.0 MIN)
 TOTAL WALL CLOCK TIME=        0.0 SECONDS, CPU UTILIZATION IS 100.00%

          ********************
          1 ELECTRON INTEGRALS
          ********************
 ...... END OF ONE-ELECTRON INTEGRALS ......
 CPU     0: STEP CPU TIME=     0.00 TOTAL CPU TIME=        0.0 (    0.0 MIN)
 TOTAL WALL CLOCK TIME=        0.1 SECONDS, CPU UTILIZATION IS  33.33%

          -------------
          GUESS OPTIONS
          -------------
          GUESS =HUCKEL            NORB  =       0          NORDER=       0
          MIX   =       F          PRTMO =       F          PUNMO =       F
          TOLZ  = 1.0E-08          TOLE  = 1.0E-05
          SYMDEN=       F          PURIFY=       F

 INITIAL GUESS ORBITALS GENERATED BY HUCKEL   ROUTINE.
 HUCKEL GUESS REQUIRES      4352 WORDS.

 SYMMETRIES FOR INITIAL GUESS ORBITALS FOLLOW.   BOTH SET(S).
     7 ORBITALS ARE OCCUPIED (    2 CORE ORBITALS).
     3=A1       4=B2       5=B1       6=A1       7=A1       8=B1       9=B2  
    10=A1      11=A1      12=A1      13=A1      14=A1      15=B1      16=B1  
    17=B2  
 ...... END OF INITIAL ORBITAL SELECTION ......
 CPU     0: STEP CPU TIME=     0.00 TOTAL CPU TIME=        0.0 (    0.0 MIN)
 TOTAL WALL CLOCK TIME=        0.1 SECONDS, CPU UTILIZATION IS  33.33%

                    ----------------------
                    AO INTEGRAL TECHNOLOGY
                    ----------------------
     S,P,L SHELL ROTATED AXIS INTEGRALS, REPROGRAMMED BY
        KAZUYA ISHIMURA (IMS) AND JOSE SIERRA (SYNSTAR).
     S,P,D,L SHELL ROTATED AXIS INTEGRALS PROGRAMMED BY
        KAZUYA ISHIMURA (INSTITUTE FOR MOLECULAR SCIENCE).
     S,P,D,F,G SHELL TO TOTAL QUARTET ANGULAR MOMENTUM SUM 5,
        ERIC PROGRAM BY GRAHAM FLETCHER (ELORET AND NASA ADVANCED
        SUPERCOMPUTING DIVISION, AMES RESEARCH CENTER).
     S,P,D,F,G,L SHELL GENERAL RYS QUADRATURE PROGRAMMED BY
        MICHEL DUPUIS (PACIFIC NORTHWEST NATIONAL LABORATORY).

          --------------------
          2 ELECTRON INTEGRALS
          --------------------

 THE -PK- OPTION IS OFF, THE INTEGRALS ARE NOT IN SUPERMATRIX FORM.
 STORING   15000 INTEGRALS/RECORD ON DISK, USING 12 BYTES/INTEGRAL.
 TWO ELECTRON INTEGRAL EVALUATION REQUIRES   89411 WORDS OF MEMORY.
 II,JST,KST,LST =  1  1  1  1 NREC =         1 INTLOC =    1
 II,JST,KST,LST =  2  1  1  1 NREC =         1 INTLOC =    2
 II,JST,KST,LST =  3  1  1  1 NREC =         1 INTLOC =    7
 II,JST,KST,LST =  4  1  1  1 NREC =         1 INTLOC =   22
 II,JST,KST,LST =  5  1  1  1 NREC =         1 INTLOC =   67
 II,JST,KST,LST =  6  1  1  1 NREC =         1 INTLOC =   67
 II,JST,KST,LST =  7  1  1  1 NREC =         1 INTLOC =   67
 II,JST,KST,LST =  8  1  1  1 NREC =         1 INTLOC =  123
 II,JST,KST,LST =  9  1  1  1 NREC =         1 INTLOC =  217
 II,JST,KST,LST = 10  1  1  1 NREC =         1 INTLOC =  314
 TOTAL NUMBER OF NONZERO TWO-ELECTRON INTEGRALS =                4350
         12 INTEGRAL RECORDS WERE STORED ON DISK FILE  8.
  ...... END OF TWO-ELECTRON INTEGRALS .....
 CPU     0: STEP CPU TIME=     0.02 TOTAL CPU TIME=        0.0 (    0.0 MIN)
 TOTAL WALL CLOCK TIME=        0.1 SECONDS, CPU UTILIZATION IS  44.44%

          --------------------------
                 RHF SCF CALCULATION
          --------------------------

     NUCLEAR ENERGY =        25.9296852128
     MAXIT =   30     NPUNCH=    2
     EXTRAP=T  DAMP=F  SHIFT=F  RSTRCT=F  DIIS=F  DEM=F  SOSCF=T
     DENSITY MATRIX CONV=  1.00E-06
     SOSCF WILL OPTIMIZE      77 ORBITAL ROTATIONS, SOGTOL=   0.250
     MEMORY REQUIRED FOR RHF ITERS=     32828 WORDS.

 ITER EX DEM     TOTAL ENERGY        E CHANGE  DENSITY CHANGE     ORB. GRAD
   1  0  0     -108.5688473045  -108.5688473045   0.268360453   0.000000000
          ---------------START SECOND ORDER SCF---------------
   2  1  0     -108.8295609878    -0.2607136833   0.091489469   0.053708021
   3  2  0     -108.8377560943    -0.0081951065   0.020530325   0.008241239
   4  3  0     -108.8381134417    -0.0003573474   0.001638584   0.000619745
   5  4  0     -108.8381145410    -0.0000010993   0.000136432   0.000099216
   6  5  0     -108.8381145669    -0.0000000259   0.000008227   0.000005969
   7  6  0     -108.8381145671    -0.0000000002   0.000001518   0.000000656
   8  7  0     -108.8381145671    -0.0000000000   0.000000269   0.000000159

          -----------------
          DENSITY CONVERGED
          -----------------
     TIME TO FORM FOCK OPERATORS=       0.0 SECONDS (       0.0 SEC/ITER)
     TIME TO SOLVE SCF EQUATIONS=       0.0 SECONDS (       0.0 SEC/ITER)

 FINAL RHF ENERGY IS     -108.8381145671 AFTER   8 ITERATIONS

 LZ VALUE ANALYSIS FOR THE MOS
 ----------------------------------------
 MO     1 (    1) HAS LZ(WEIGHT)= 0.00(100.0%) 
 MO     2 (    2) HAS LZ(WEIGHT)= 0.00(100.0%) 
 MO     3 (    3) HAS LZ(WEIGHT)= 0.00(100.0%) 
 MO     4 (    4) HAS LZ(WEIGHT)= 0.00(100.0%) 
 MO     5 (    5) HAS LZ(WEIGHT)=-1.00( 50.0%)  1.00( 50.0%) 
 MO     6 (    5) HAS LZ(WEIGHT)=-1.00( 50.0%)  1.00( 50.0%) 
 MO     7 (    6) HAS LZ(WEIGHT)= 0.00(100.0%) 
 MO     8 (    7) HAS LZ(WEIGHT)=-1.00( 50.0%)  1.00( 50.0%) 
 MO     9 (    7) HAS LZ(WEIGHT)=-1.00( 50.0%)  1.00( 50.0%) 
 MO    10 (    8) HAS LZ(WEIGHT)= 0.00(100.0%) 
 MO    11 (    9) HAS LZ(WEIGHT)= 0.00(100.0%) 
 MO    12 (   10) HAS LZ(WEIGHT)=-1.00( 50.0%)  1.00( 50.0%) 
 MO    13 (   10) HAS LZ(WEIGHT)=-1.00( 50.0%)  1.00( 50.0%) 
 MO    14 (   11) HAS LZ(WEIGHT)=-1.00( 50.0%)  1.00( 50.0%) 
 MO    15 (   11) HAS LZ(WEIGHT)=-1.00( 50.0%)  1.00( 50.0%) 
 MO    16 (   12) HAS LZ(WEIGHT)= 0.00(100.0%) 
 MO    17 (   13) HAS LZ(WEIGHT)= 0.00(100.0%) 
 MO    18 (   14) HAS LZ(WEIGHT)= 0.00(100.0%) 

          ------------
          EIGENVECTORS
          ------------

                      1          2          3          4          5
                  -15.6999   -15.6934    -1.6006    -0.7394    -0.6723
                     A1         A1         A1         A1         B1  
    1  N  1  S    0.706116  -0.706890  -0.179897   0.153065   0.000000
    2  N  1  S    0.001966  -0.001371   0.369022  -0.351924   0.000000
    3  N  1  S    0.000664  -0.003957   0.145970  -0.461942   0.000000
    4  N  1  X    0.000000   0.000000   0.000000   0.000000   0.523539
    5  N  1  Y    0.000000   0.000000   0.000000   0.000000   0.000000
    6  N  1  Z    0.002655  -0.002577   0.278538   0.249185   0.000000
    7  N  1  X    0.000000   0.000000   0.000000   0.000000   0.138351
    8  N  1  Y    0.000000   0.000000   0.000000   0.000000   0.000000
    9  N  1  Z   -0.001392  -0.000704  -0.040589   0.053457   0.000000
   10  N  2  S    0.706116   0.706890  -0.179897  -0.153065   0.000000
   11  N  2  S    0.001966   0.001371   0.369022   0.351924   0.000000
   12  N  2  S    0.000664   0.003957   0.145970   0.461942   0.000000
   13  N  2  X    0.000000   0.000000   0.000000   0.000000   0.523539
   14  N  2  Y    0.000000   0.000000   0.000000   0.000000   0.000000
   15  N  2  Z   -0.002655  -0.002577  -0.278538   0.249185   0.000000
   16  N  2  X    0.000000   0.000000   0.000000   0.000000   0.138351
   17  N  2  Y    0.000000   0.000000   0.000000   0.000000   0.000000
   18  N  2  Z    0.001392  -0.000704   0.040589   0.053457   0.000000

                      6          7          8          9         10
                   -0.6723    -0.6306     0.1960     0.1960     0.4210
                     B2         A1         B1         B2         A1  
    1  N  1  S    0.000000   0.056325   0.000000   0.000000  -0.089003
    2  N  1  S    0.000000  -0.095567   0.000000   0.000000   0.042449
    3  N  1  S    0.000000  -0.340178   0.000000   0.000000   3.458163
    4  N  1  X    0.000000   0.000000   0.491370   0.000000   0.000000
    5  N  1  Y    0.523539   0.000000   0.000000   0.491370   0.000000
    6  N  1  Z    0.000000   0.519858   0.000000   0.000000  -0.050819
    7  N  1  X    0.000000   0.000000   0.800365   0.000000   0.000000
    8  N  1  Y    0.138351   0.000000   0.000000   0.800365   0.000000
    9  N  1  Z    0.000000   0.079786   0.000000   0.000000   1.968516
   10  N  2  S    0.000000   0.056325   0.000000   0.000000   0.089003
   11  N  2  S    0.000000  -0.095567   0.000000   0.000000  -0.042449
   12  N  2  S    0.000000  -0.340178   0.000000   0.000000  -3.458163
   13  N  2  X    0.000000   0.000000  -0.491370   0.000000   0.000000
   14  N  2  Y    0.523539   0.000000   0.000000  -0.491370   0.000000
   15  N  2  Z    0.000000  -0.519858   0.000000   0.000000  -0.050819
   16  N  2  X    0.000000   0.000000  -0.800365   0.000000   0.000000
   17  N  2  Y    0.138351   0.000000   0.000000  -0.800365   0.000000
   18  N  2  Z    0.000000  -0.079786   0.000000   0.000000   1.968516

                     11         12         13         14         15
                    0.5631     0.5764     0.5764     0.8050     0.8050
                     A1         B2         B1         B2         B1  
    1  N  1  S   -0.008676   0.000000   0.000000   0.000000   0.000000
    2  N  1  S   -0.177451   0.000000   0.000000   0.000000   0.000000
    3  N  1  S   -0.191803   0.000000   0.000000   0.000000   0.000000
    4  N  1  X    0.000000   0.000000  -0.574891   0.000000  -0.769840
    5  N  1  Y    0.000000  -0.574891   0.000000  -0.769840   0.000000
    6  N  1  Z   -0.354736   0.000000   0.000000   0.000000   0.000000
    7  N  1  X    0.000000   0.000000   0.643245   0.000000   1.345069
    8  N  1  Y    0.000000   0.643245   0.000000   1.345069   0.000000
    9  N  1  Z    1.190464   0.000000   0.000000   0.000000   0.000000
   10  N  2  S   -0.008676   0.000000   0.000000   0.000000   0.000000
   11  N  2  S   -0.177451   0.000000   0.000000   0.000000   0.000000
   12  N  2  S   -0.191803   0.000000   0.000000   0.000000   0.000000
   13  N  2  X    0.000000   0.000000  -0.574891   0.000000   0.769840
   14  N  2  Y    0.000000  -0.574891   0.000000   0.769840   0.000000
   15  N  2  Z    0.354736   0.000000   0.000000   0.000000   0.000000
   16  N  2  X    0.000000   0.000000   0.643245   0.000000  -1.345069
   17  N  2  Y    0.000000   0.643245   0.000000  -1.345069   0.000000
   18  N  2  Z   -1.190464   0.000000   0.000000   0.000000   0.000000

                     16         17         18
                    0.9237     1.4069     1.7566
                     A1         A1         A1  
    1  N  1  S   -0.073038  -0.048893  -0.076848
    2  N  1  S    1.117790  -0.158598   1.686362
    3  N  1  S   -0.951278   3.324861  -5.055013
    4  N  1  X    0.000000   0.000000   0.000000
    5  N  1  Y    0.000000   0.000000   0.000000
    6  N  1  Z   -0.262525   1.160486   0.363577
    7  N  1  X    0.000000   0.000000   0.000000
    8  N  1  Y    0.000000   0.000000   0.000000
    9  N  1  Z    0.089204   0.880453  -1.742845
   10  N  2  S   -0.073038   0.048893   0.076848
   11  N  2  S    1.117790   0.158598  -1.686362
   12  N  2  S   -0.951278  -3.324861   5.055013
   13  N  2  X    0.000000   0.000000   0.000000
   14  N  2  Y    0.000000   0.000000   0.000000
   15  N  2  Z    0.262525   1.160486   0.363577
   16  N  2  X    0.000000   0.000000   0.000000
   17  N  2  Y    0.000000   0.000000   0.000000
   18  N  2  Z   -0.089204   0.880453  -1.742845
 ...... END OF RHF CALCULATION ......
 CPU     0: STEP CPU TIME=     0.01 TOTAL CPU TIME=        0.0 (    0.0 MIN)
 TOTAL WALL CLOCK TIME=        0.1 SECONDS, CPU UTILIZATION IS  55.56%

     ----------------------------------------------------------------
     PROPERTY VALUES FOR THE RHF   SELF-CONSISTENT FIELD WAVEFUNCTION
     ----------------------------------------------------------------

          -----------------
          ENERGY COMPONENTS
          -----------------

         WAVEFUNCTION NORMALIZATION =       1.0000000000

                ONE ELECTRON ENERGY =    -198.1186433517
                TWO ELECTRON ENERGY =      63.3508435719
           NUCLEAR REPULSION ENERGY =      25.9296852128
                                      ------------------
                       TOTAL ENERGY =    -108.8381145671

 ELECTRON-ELECTRON POTENTIAL ENERGY =      63.3508435719
  NUCLEUS-ELECTRON POTENTIAL ENERGY =    -307.6191341583
   NUCLEUS-NUCLEUS POTENTIAL ENERGY =      25.9296852128
                                      ------------------
             TOTAL POTENTIAL ENERGY =    -218.3386053737
               TOTAL KINETIC ENERGY =     109.5004908066
                 VIRIAL RATIO (V/T) =       1.9939509290

  ...... PI ENERGY ANALYSIS ......

 ENERGY ANALYSIS:
            FOCK ENERGY=    -71.4169557415
          BARE H ENERGY=   -198.1186433517
     ELECTRONIC ENERGY =   -134.7677995466
         KINETIC ENERGY=    109.5004908066
          N-N REPULSION=     25.9296852128
           TOTAL ENERGY=   -108.8381143338
        SIGMA PART(1+2)=   -116.7577926929
               (K,V1,2)=    102.6241882098   -267.4120784941     48.0300975914
           PI PART(1+2)=    -18.0100068537
               (K,V1,2)=      6.8763025967    -40.2070556642     15.3207462137
  SIGMA SKELETON, ERROR=    -90.8281074801      0.0000000000
             MIXED PART= 0.00000E+00 0.00000E+00 0.00000E+00 0.00000E+00
 ...... END OF PI ENERGY ANALYSIS ......

          ---------------------------------------
          MULLIKEN AND LOWDIN POPULATION ANALYSES
          ---------------------------------------

               ----- POPULATIONS IN EACH AO -----
                             MULLIKEN      LOWDIN
              1  N  1  S      1.99977     1.99602
              2  N  1  S      0.92900     0.81794
              3  N  1  S      0.86319     0.70178
              4  N  1  X      0.80894     0.72797
              5  N  1  Y      0.80894     0.72797
              6  N  1  Z      1.15819     1.13993
              7  N  1  X      0.19106     0.27203
              8  N  1  Y      0.19106     0.27203
              9  N  1  Z      0.04985     0.34433
             10  N  2  S      1.99977     1.99602
             11  N  2  S      0.92900     0.81794
             12  N  2  S      0.86319     0.70178
             13  N  2  X      0.80894     0.72797
             14  N  2  Y      0.80894     0.72797
             15  N  2  Z      1.15819     1.13993
             16  N  2  X      0.19106     0.27203
             17  N  2  Y      0.19106     0.27203
             18  N  2  Z      0.04985     0.34433

          ----- MULLIKEN ATOMIC OVERLAP POPULATIONS -----
          (OFF-DIAGONAL ELEMENTS NEED TO BE MULTIPLIED BY 2)

             1           2

    1    6.3436570
    2    0.6563430   6.3436570

          TOTAL MULLIKEN AND LOWDIN ATOMIC POPULATIONS
       ATOM         MULL.POP.    CHARGE          LOW.POP.     CHARGE
    1 N             7.000000   -0.000000         7.000000   -0.000000
    2 N             7.000000    0.000000         7.000000   -0.000000

          ---------------------
          ELECTROSTATIC MOMENTS
          ---------------------

 POINT   1           X           Y           Z (BOHR)    CHARGE
                 0.000000    0.000000    0.944863       -0.00 (A.U.)
         DX          DY          DZ         /D/  (DEBYE)
     0.000000    0.000000    0.000000    0.000000
 ...... END OF PROPERTY EVALUATION ......
 CPU     0: STEP CPU TIME=     0.00 TOTAL CPU TIME=        0.0 (    0.0 MIN)
 TOTAL WALL CLOCK TIME=        0.1 SECONDS, CPU UTILIZATION IS  38.46%

 DETERMINANT CI OPTIONS   NRNFG   NPFLG
 INTEGRAL TRANSFORMATION    1       0
 DIAGONALIZE HAMILTONIAN    1       0
 FORM 1E- DENSITY MATRIX    1       0
 FORM 2E- DENSITY MATRIX    0       0

     --------------------------------------------------
          AMES LABORATORY DETERMINANTAL FULL CI
     PROGRAM WRITTEN BY JOE IVANIC AND KLAUS RUEDENBERG
     --------------------------------------------------

 THE POINT GROUP                  =   C2V     
 THE STATE SYMMETRY               =   A1      
 NUMBER OF CORE ORBITALS          =    2
 NUMBER OF ACTIVE ORBITALS        =   16
 NUMBER OF ALPHA ELECTRONS        =    7 (   5 ACTIVE)
 NUMBER OF BETA ELECTRONS         =    7 (   5 ACTIVE)
 NUMBER OF OCCUPIED ORBITALS      =   18
 NUMBER OF CI STATES REQUESTED    =    1
 NUMBER OF CI STARTING VECTORS    =    6
 MAX. NO. OF CI EXPANSION VECTORS =   12
 SIZE OF INITIAL CI GUESS MATRIX  =  300
 MAX. NO. OF CI ITERS/STATE       =  100
 CI DIAGONALIZATION CRITERION     = 1.00E-06
 CI PROPERTIES WILL BE FOUND FOR ROOT NUMBER   1
 1E- DENSITY MATRIX OPTIONS ARE 1

 CORRELATION ENERGY ANALYSIS      =    F

 SYMMETRIES FOR THE   2 CORE,  16 ACTIVE ARE

     CORE= A1    A1  

   ACTIVE= A1    A1    B1    B2    A1    B1    B2    A1    A1    B2  
           B1    B2    B1    A1    A1    A1  

     --------------------------------------------
     PARTIAL TWO ELECTRON INTEGRAL TRANSFORMATION
     --------------------------------------------

 NUMBER OF CORE MOLECULAR ORBITALS     =    2
 NUMBER OF OCCUPIED MOLECULAR ORBITALS =   18
 TOTAL NUMBER OF MOLECULAR ORBITALS    =   18
 TOTAL NUMBER OF ATOMIC ORBITALS       =   18
 THRESHOLD FOR KEEPING TRANSFORMED 2E- INTEGRALS = 1.000E-09

 -------------------------------     ------------------------------
 DISTRIBUTED DATA TRANSFORMATION     PROGRAM WRITTEN BY G. FLETCHER
 -------------------------------     ------------------------------

 THE DISTRIBUTED MEMORY REQUIRED FOR THIS STEP IS MEMDDI=         1 MWORDS
 CREATING DISTRIBUTED STORAGE FOR [OCC OCC|OCC OCC] INTEGRALS
 DDI: Creating Array [0] - 171 x 171 = 29241 words.
 CREATING WORKSPACE OF SIZE VVOO
 DDI: Creating Array [1] - 171 x 171 = 29241 words.
 FOR   12 PROCESSORS, THE REPLICATED MEMORY NEEDED IS       58507 WORDS.

      DIRECT 4-INDEX TRANSFORMATION 
      SCHWARZ INEQUALITY TEST SKIPPED          0 INTEGRAL BLOCKS
 ----- FROZEN CORE ENERGY =      -102.1648331993
 ... END OF INTEGRAL TRANSFORMATION ...
 CPU     0: STEP CPU TIME=     0.01 TOTAL CPU TIME=        0.1 (    0.0 MIN)
 TOTAL WALL CLOCK TIME=        0.2 SECONDS, CPU UTILIZATION IS  37.50%

     --------------------------------------------------
          AMES LABORATORY DETERMINANTAL FULL CI
     PROGRAM WRITTEN BY JOE IVANIC AND KLAUS RUEDENBERG
     --------------------------------------------------

 THE NUMBER OF DETERMINANTS HAVING SPACE SYMMETRY A1 
 IN POINT GROUP C2V  WITH SZ=  0.0 IS        4777056
 THE DETERMINANT FULL CI REQUIRES       119865995 WORDS
 INITIAL CI VECTOR GUESS TIME  :          2.0
 INITIAL FULL CI ITERATION TIME:          5.9

 ITERATION      ENERGY           GRADIENT
     0     -108.9318892940     0.58535174
     1     -109.0309870583     0.19263217
     2     -109.0379373973     0.06864650
     3     -109.0389191391     0.02451365
     4     -109.0390479483     0.00944086
     5     -109.0390662353     0.00392396
     6     -109.0390692497     0.00154439
     7     -109.0390696298     0.00063898
     8     -109.0390697299     0.00029427
     9     -109.0390697465     0.00011716
    10     -109.0390697490     0.00004609
    11     -109.0390697495     0.00001894
    12     -109.0390697495     0.00000566
    13     -109.0390697495     0.00000215
    14     -109.0390697495     0.00000087

 CONVERGED STATE    1 ENERGY=     -109.0390697495 IN   14 ITERS

 ALL STATES CONVERGED.

 CI EIGENVECTORS WILL BE LABELED IN GROUP=C2V     
 PRINTING CI COEFFICIENTS LARGER THAN  0.050000

 STATE   1  ENERGY=      -109.0390697495  S=  0.00  SZ=  0.00  SPACE SYM=A1  

      ALPHA       |      BETA        | COEFFICIENT
------------------|------------------|------------
 1111100000000000 | 1111100000000000 |   0.9571791
 1101110000000000 | 1101110000000000 |  -0.0851681
 1110101000000000 | 1110101000000000 |  -0.0851681
 1110101000000000 | 1101110000000000 |   0.0567178
 1101110000000000 | 1110101000000000 |   0.0567178
 ..... DONE WITH DETERMINANT CI COMPUTATION .....
 CPU     0: STEP CPU TIME=    44.92 TOTAL CPU TIME=       45.0 (    0.7 MIN)
 TOTAL WALL CLOCK TIME=       57.8 SECONDS, CPU UTILIZATION IS  77.78%

     ---------------------------
     ONE PARTICLE DENSITY MATRIX
     ---------------------------

 DENSITY MATRIX WILL BE SAVED FOR   1-TH STATE WITH S= 0.00

 CI EIGENSTATE   1 TOTAL ENERGY =     -109.0390697495

          NATURAL ORBITALS IN ATOMIC ORBITAL BASIS
          ----------------------------------------

                      1          2          3          4          5
                    2.0000     2.0000     1.9890     1.9794     1.9730
                     A1         A1         A1         A1         A1  
    1  N  1  S    0.706116   0.706890  -0.186549   0.024469  -0.152722
    2  N  1  S    0.001966   0.001371   0.375965  -0.023125   0.355607
    3  N  1  S    0.000664   0.003957   0.204838  -0.320172   0.433115
    4  N  1  X    0.000000   0.000000   0.000000   0.000000   0.000000
    5  N  1  Y    0.000000   0.000000   0.000000   0.000000   0.000000
    6  N  1  Z    0.002655   0.002577   0.188077   0.554964  -0.241178
    7  N  1  X    0.000000   0.000000   0.000000   0.000000   0.000000
    8  N  1  Y    0.000000   0.000000   0.000000   0.000000   0.000000
    9  N  1  Z   -0.001392   0.000704  -0.054723   0.079592  -0.072112
   10  N  2  S    0.706116  -0.706890  -0.186549   0.024469   0.152722
   11  N  2  S    0.001966  -0.001371   0.375965  -0.023125  -0.355607
   12  N  2  S    0.000664  -0.003957   0.204838  -0.320172  -0.433115
   13  N  2  X    0.000000   0.000000   0.000000   0.000000   0.000000
   14  N  2  Y    0.000000   0.000000   0.000000   0.000000   0.000000
   15  N  2  Z   -0.002655   0.002577  -0.188077  -0.554964  -0.241178
   16  N  2  X    0.000000   0.000000   0.000000   0.000000   0.000000
   17  N  2  Y    0.000000   0.000000   0.000000   0.000000   0.000000
   18  N  2  Z    0.001392   0.000704   0.054723  -0.079592  -0.072112

                      6          7          8          9         10
                    1.9427     1.9427     0.0592     0.0592     0.0151
                     B1         B2         B2         B1         A1  
    1  N  1  S    0.000000   0.000000   0.000000   0.000000  -0.076445
    2  N  1  S    0.000000   0.000000   0.000000   0.000000   0.582363
    3  N  1  S    0.000000   0.000000   0.000000   0.000000   0.821033
    4  N  1  X    0.530809   0.000000   0.000000   0.795803   0.000000
    5  N  1  Y    0.000000   0.530809   0.795803   0.000000   0.000000
    6  N  1  Z    0.000000   0.000000   0.000000   0.000000   1.205237
    7  N  1  X    0.130159   0.000000   0.000000   0.073360   0.000000
    8  N  1  Y    0.000000   0.130159   0.073360   0.000000   0.000000
    9  N  1  Z    0.000000   0.000000   0.000000   0.000000   0.045785
   10  N  2  S    0.000000   0.000000   0.000000   0.000000   0.076445
   11  N  2  S    0.000000   0.000000   0.000000   0.000000  -0.582363
   12  N  2  S    0.000000   0.000000   0.000000   0.000000  -0.821033
   13  N  2  X    0.530809   0.000000   0.000000  -0.795803   0.000000
   14  N  2  Y    0.000000   0.530809  -0.795803   0.000000   0.000000
   15  N  2  Z    0.000000   0.000000   0.000000   0.000000   1.205237
   16  N  2  X    0.130159   0.000000   0.000000  -0.073360   0.000000
   17  N  2  Y    0.000000   0.130159  -0.073360   0.000000   0.000000
   18  N  2  Z    0.000000   0.000000   0.000000   0.000000   0.045785

                     11         12         13         14         15
                    0.0127     0.0098     0.0059     0.0059     0.0031
                     A1         A1         B2         B1         A1  
    1  N  1  S   -0.073151  -0.100726   0.000000   0.000000   0.013964
    2  N  1  S    1.012376   1.021570   0.000000   0.000000  -0.509378
    3  N  1  S   -0.960555  -1.005773   0.000000   0.000000   0.107761
    4  N  1  X    0.000000   0.000000   0.000000  -0.568186   0.000000
    5  N  1  Y    0.000000   0.000000  -0.568186   0.000000   0.000000
    6  N  1  Z   -0.363050  -0.150245   0.000000   0.000000  -0.259673
    7  N  1  X    0.000000   0.000000   0.000000   0.644953   0.000000
    8  N  1  Y    0.000000   0.000000   0.644953   0.000000   0.000000
    9  N  1  Z    0.446423   0.331866   0.000000   0.000000   1.106595
   10  N  2  S   -0.073151   0.100726   0.000000   0.000000   0.013964
   11  N  2  S    1.012376  -1.021570   0.000000   0.000000  -0.509378
   12  N  2  S   -0.960555   1.005773   0.000000   0.000000   0.107761
   13  N  2  X    0.000000   0.000000   0.000000  -0.568186   0.000000
   14  N  2  Y    0.000000   0.000000  -0.568186   0.000000   0.000000
   15  N  2  Z    0.363050  -0.150245   0.000000   0.000000   0.259673
   16  N  2  X    0.000000   0.000000   0.000000   0.644953   0.000000
   17  N  2  Y    0.000000   0.000000   0.644953   0.000000   0.000000
   18  N  2  Z   -0.446423   0.331866   0.000000   0.000000  -1.106595

                     16         17         18
                    0.0010     0.0010     0.0003
                     B1         B2         A1  
    1  N  1  S    0.000000   0.000000  -0.018249
    2  N  1  S    0.000000   0.000000  -1.218776
    3  N  1  S    0.000000   0.000000   6.848859
    4  N  1  X   -0.448104   0.000000   0.000000
    5  N  1  Y    0.000000  -0.448104   0.000000
    6  N  1  Z    0.000000   0.000000   0.101261
    7  N  1  X    1.563462   0.000000   0.000000
    8  N  1  Y    0.000000   1.563462   0.000000
    9  N  1  Z    0.000000   0.000000   2.751943
   10  N  2  S    0.000000   0.000000   0.018249
   11  N  2  S    0.000000   0.000000   1.218776
   12  N  2  S    0.000000   0.000000  -6.848859
   13  N  2  X    0.448104   0.000000   0.000000
   14  N  2  Y    0.000000   0.448104   0.000000
   15  N  2  Z    0.000000   0.000000   0.101261
   16  N  2  X   -1.563462   0.000000   0.000000
   17  N  2  Y    0.000000  -1.563462   0.000000
   18  N  2  Z    0.000000   0.000000   2.751943
 ..... DONE WITH ONE PARTICLE DENSITY MATRIX .....
 CPU     0: STEP CPU TIME=     0.99 TOTAL CPU TIME=       46.0 (    0.8 MIN)
 TOTAL WALL CLOCK TIME=       59.1 SECONDS, CPU UTILIZATION IS  77.85%

     --------------------------------------------------------
     ALDET CI PROPERTIES...FOR THE WAVEFUNCTION OF STATE    1
               USING THE EXPECTATION VALUE DENSITY
     --------------------------------------------------------

          -----------------
          ENERGY COMPONENTS
          -----------------

         WAVEFUNCTION NORMALIZATION =       1.0000000000

                ONE ELECTRON ENERGY =    -198.0590562990
                TWO ELECTRON ENERGY =      63.0903013367
           NUCLEAR REPULSION ENERGY =      25.9296852128
                                      ------------------
                       TOTAL ENERGY =    -109.0390697495

 ELECTRON-ELECTRON POTENTIAL ENERGY =      63.0903013367
  NUCLEUS-ELECTRON POTENTIAL ENERGY =    -307.7898863904
   NUCLEUS-NUCLEUS POTENTIAL ENERGY =      25.9296852128
                                      ------------------
             TOTAL POTENTIAL ENERGY =    -218.7698998409
               TOTAL KINETIC ENERGY =     109.7308300914
                 VIRIAL RATIO (V/T) =       1.9936958434

          ---------------------------------------
          MULLIKEN AND LOWDIN POPULATION ANALYSES
          ---------------------------------------

               ----- POPULATIONS IN EACH AO -----
                             MULLIKEN      LOWDIN
              1  N  1  S      1.99976     1.99563
              2  N  1  S      0.92143     0.81110
              3  N  1  S      0.85325     0.70624
              4  N  1  X      0.82815     0.74704
              5  N  1  Y      0.82815     0.74704
              6  N  1  Z      1.13808     1.12323
              7  N  1  X      0.17623     0.25734
              8  N  1  Y      0.17623     0.25734
              9  N  1  Z      0.07871     0.35504
             10  N  2  S      1.99976     1.99563
             11  N  2  S      0.92143     0.81110
             12  N  2  S      0.85325     0.70624
             13  N  2  X      0.82815     0.74704
             14  N  2  Y      0.82815     0.74704
             15  N  2  Z      1.13808     1.12323
             16  N  2  X      0.17623     0.25734
             17  N  2  Y      0.17623     0.25734
             18  N  2  Z      0.07871     0.35504

          ----- MULLIKEN ATOMIC OVERLAP POPULATIONS -----
          (OFF-DIAGONAL ELEMENTS NEED TO BE MULTIPLIED BY 2)

             1           2

    1    6.3878511
    2    0.6121489   6.3878511

          TOTAL MULLIKEN AND LOWDIN ATOMIC POPULATIONS
       ATOM         MULL.POP.    CHARGE          LOW.POP.     CHARGE
    1 N             7.000000    0.000000         7.000000    0.000000
    2 N             7.000000    0.000000         7.000000    0.000000

          ---------------------
          ELECTROSTATIC MOMENTS
          ---------------------

 POINT   1           X           Y           Z (BOHR)    CHARGE
                 0.000000    0.000000    0.944863        0.00 (A.U.)
         DX          DY          DZ         /D/  (DEBYE)
     0.000000    0.000000    0.000000    0.000000
 ...... END OF PROPERTY EVALUATION ......
 CPU     0: STEP CPU TIME=     0.01 TOTAL CPU TIME=       46.0 (    0.8 MIN)
 TOTAL WALL CLOCK TIME=       59.6 SECONDS, CPU UTILIZATION IS  77.20%
             119866886  WORDS OF DYNAMIC MEMORY USED
 EXECUTION OF GAMESS TERMINATED NORMALLY Thu Jan 17 17:41:43 2019
 DDI: 305760 bytes (0.3 MB / 0 MWords) used by master data server.

 ----------------------------------------
 CPU timing information for all processes
 ========================================
 0: 43.104 + 3.48 = 46.152
 1: 42.936 + 4.172 = 47.108
 2: 44.500 + 3.664 = 48.164
 3: 44.152 + 4.132 = 48.284
 4: 44.744 + 3.784 = 48.528
 5: 42.932 + 3.256 = 46.188
 6: 43.344 + 3.904 = 47.248
 7: 43.780 + 3.960 = 47.740
 8: 43.252 + 3.816 = 47.68
 9: 44.656 + 3.420 = 48.76
 10: 44.112 + 3.572 = 47.684
 11: 42.828 + 3.484 = 46.312
 12: 0.112 + 1.600 = 1.712
 13: 0.00 + 0.04 = 0.04
 14: 0.00 + 0.08 = 0.08
 15: 0.00 + 0.04 = 0.04
 16: 0.00 + 0.04 = 0.04
 17: 0.04 + 0.00 = 0.04
 18: 0.00 + 0.08 = 0.08
 19: 0.04 + 0.00 = 0.04
 20: 0.00 + 0.04 = 0.04
 21: 0.00 + 0.08 = 0.08
 22: 0.04 + 0.00 = 0.04
 23: 0.04 + 0.00 = 0.04
 ----------------------------------------
 ddikick.x: exited gracefully.
unset echo
----- accounting info -----
Files used on the master node localhost were:
-rw-rw-r-- 1 maho maho    13429 Jan 17 17:41 ./N2.SV/1.0/N2.SV.fullCI.1.0.gamess.dat
-rw------- 1 maho maho     1813 Jan 17 17:40 ./N2.SV/1.0/N2.SV.fullCI.1.0.gamess.F05
-rw-rw-r-- 1 maho maho   180016 Jan 17 17:40 ./N2.SV/1.0/N2.SV.fullCI.1.0.gamess.F08
-rw-rw-r-- 1 maho maho     1376 Jan 17 17:40 ./N2.SV/1.0/N2.SV.fullCI.1.0.gamess.F09
-rw-rw-r-- 1 maho maho  1865040 Jan 17 17:41 ./N2.SV/1.0/N2.SV.fullCI.1.0.gamess.F10
-rw-rw-r-- 1 maho maho 38216480 Jan 17 17:41 ./N2.SV/1.0/N2.SV.fullCI.1.0.gamess.F12
-rw------- 1 maho maho     1813 Jan 17 17:40 ./N2.SV/1.0/N2.SV.fullCI.1.0.gamess.inp
-rw-rw-r-- 1 maho maho    45710 Jan 17 17:41 ./N2.SV/1.0/N2.SV.fullCI.1.0.gamess.log
ls: No match.
ls: No match.
ls: No match.
Thu Jan 17 17:41:46 JST 2019
0.0u 0.0s 1:03.01 0.1% 0+0k 0+8io 0pf+0w
