----- GAMESS execution script 'rungms' -----
This job is running on host bach.ad64.riken.go.jp
under operating system Darwin at 2019年 1月17日 木曜日 17時51分20秒 JST
Available scratch disk space (Kbyte units) at beginning of the job is
Filesystem   1024-blocks       Used Available Capacity iused      ifree %iused  Mounted on
/dev/disk2s2  1953178672 1144753368 808425304    59%  984470 4293982809    0%   /Volumes/Users
GAMESS temporary binary files will be written to ./
GAMESS supplementary output files will be written to ./
Copying input file LiH.631g/3.9/LiH.631g.fullCI.3.9.gamess.inp to your run's scratch directory...
cp LiH.631g/3.9/LiH.631g.fullCI.3.9.gamess.inp .//LiH.631g/3.9/LiH.631g.fullCI.3.9.gamess.F05
unset echo
/Volumes/Users/maho/bin/gamess//ddikick.x /Volumes/Users/maho/bin/gamess//gamess.00.x LiH.631g/3.9/LiH.631g.fullCI.3.9.gamess -ddi 1 1 bach.ad64.riken.go.jp -scr ./

 Distributed Data Interface kickoff program.
 Initiating 1 compute processes on 1 nodes to run the following command:
 /Volumes/Users/maho/bin/gamess//gamess.00.x LiH.631g/3.9/LiH.631g.fullCI.3.9.gamess 

          ******************************************************
          *         GAMESS VERSION = 18 AUG 2016 (R1)          *
          *             FROM IOWA STATE UNIVERSITY             *
          * M.W.SCHMIDT, K.K.BALDRIDGE, J.A.BOATZ, S.T.ELBERT, *
          *   M.S.GORDON, J.H.JENSEN, S.KOSEKI, N.MATSUNAGA,   *
          *          K.A.NGUYEN, S.J.SU, T.L.WINDUS,           *
          *       TOGETHER WITH M.DUPUIS, J.A.MONTGOMERY       *
          *         J.COMPUT.CHEM.  14, 1347-1363(1993)        *
          **************** 64 BIT APPLE VERSION ****************

  SINCE 1993, STUDENTS AND POSTDOCS WORKING AT IOWA STATE UNIVERSITY
  AND ALSO IN THEIR VARIOUS JOBS AFTER LEAVING ISU HAVE MADE IMPORTANT
  CONTRIBUTIONS TO THE CODE:
     IVANA ADAMOVIC, CHRISTINE AIKENS, YURI ALEXEEV, POOJA ARORA,
     ANDREY ASADCHEV, ROB BELL, PRADIPTA BANDYOPADHYAY, JONATHAN BENTZ,
     BRETT BODE, KURT BRORSEN, CALEB CARLIN, GALINA CHABAN, WEI CHEN,
     CHEOL HO CHOI, PAUL DAY, ALBERT DEFUSCO, NUWAN DESILVA, TIM DUDLEY,
     DMITRI FEDOROV, GRAHAM FLETCHER, MARK FREITAG, KURT GLAESEMANN,
     DAN KEMP, GRANT MERRILL, NORIYUKI MINEZAWA, JONATHAN MULLIN,
     TAKESHI NAGATA, SEAN NEDD, HEATHER NETZLOFF, BOSILJKA NJEGIC, RYAN OLSON,
     MIKE PAK, SPENCER PRUITT, LUKE ROSKOP, JIM SHOEMAKER, LYUDMILA SLIPCHENKO,
     TONY SMITH, SAROM SOK LEANG, JIE SONG, TETSUYA TAKETSUGU, SIMON WEBB,
     PENG XU, SOOHAENG YOO, FEDERICO ZAHARIEV

  ADDITIONAL CODE HAS BEEN PROVIDED BY COLLABORATORS IN OTHER GROUPS:
     IOWA STATE UNIVERSITY:
          JOE IVANIC, AARON WEST, LAIMUTIS BYTAUTAS, KLAUS RUEDENBERG
     UNIVERSITY OF TOKYO: KIMIHIKO HIRAO, TAKAHITO NAKAJIMA,
          TAKAO TSUNEDA, MUNEAKI KAMIYA, SUSUMU YANAGISAWA,
          KIYOSHI YAGI, MAHITO CHIBA, SEIKEN TOKURA, NAOAKI KAWAKAMI
     UNIVERSITY OF AARHUS: FRANK JENSEN
     UNIVERSITY OF IOWA: VISVALDAS KAIRYS, HUI LI
     NATIONAL INST. OF STANDARDS AND TECHNOLOGY: WALT STEVENS, DAVID GARMER
     UNIVERSITY OF PISA: BENEDETTA MENNUCCI, JACOPO TOMASI
     UNIVERSITY OF MEMPHIS: HENRY KURTZ, PRAKASHAN KORAMBATH
     UNIVERSITY OF ALBERTA: TOBY ZENG, MARIUSZ KLOBUKOWSKI
     UNIVERSITY OF NEW ENGLAND: MARK SPACKMAN
     MIE UNIVERSITY: HIROAKI UMEDA
     NAT. INST. OF ADVANCED INDUSTRIAL SCIENCE AND TECHNOLOGY: KAZUO KITAURA
     MICHIGAN STATE UNIVERSITY:
          KAROL KOWALSKI, MARTA WLOCH, JEFFREY GOUR, JESSE LUTZ,
          WEI LI, PIOTR PIECUCH
     UNIVERSITY OF SILESIA: MONIKA MUSIAL, STANISLAW KUCHARSKI
     FACULTES UNIVERSITAIRES NOTRE-DAME DE LA PAIX:
          OLIVIER QUINET, BENOIT CHAMPAGNE
     UNIVERSITY OF CALIFORNIA - SANTA BARBARA: BERNARD KIRTMAN
     INSTITUTE FOR MOLECULAR SCIENCE:
          KAZUYA ISHIMURA, MICHIO KATOUDA, AND SHIGERU NAGASE
     UNIVERSITY OF NOTRE DAME: ANNA POMOGAEVA, DAN CHIPMAN
     KYUSHU UNIVERSITY:
          HARUYUKI NAKANO,
          FENG LONG GU, JACEK KORCHOWIEC, MARCIN MAKOWSKI, AND YURIKO AOKI,
          HIROTOSHI MORI AND EISAKU MIYOSHI
     PENNSYLVANIA STATE UNIVERSITY:
          TZVETELIN IORDANOV, CHET SWALINA, JONATHAN SKONE,
          SHARON HAMMES-SCHIFFER
     WASEDA UNIVERSITY:
          MASATO KOBAYASHI, TOMOKO AKAMA, TSUGUKI TOUMA,
          TAKESHI YOSHIKAWA, YASUHIRO IKABATA, JUNJI SEINO,
          YUYA NAKAJIMA, HIROMI NAKAI
     NANJING UNIVERSITY: SHUHUA LI
     UNIVERSITY OF NEBRASKA:
          PEIFENG SU, DEJUN SI, NANDUN THELLAMUREGE, YALI WANG, HUI LI
     UNIVERSITY OF ZURICH: ROBERTO PEVERATI, KIM BALDRIDGE
     N. COPERNICUS UNIVERSITY AND JACKSON STATE UNIVERSITY:
          MARIA BARYSZ
     UNIVERSITY OF COPENHAGEN: Jimmy Kromann, CASPER STEINMANN
     TOKYO INSTITUTE OF TECHNOLOGY: HIROYA NAKATA
     NAGOYA UNIVERSITY: YOSHIO NISHIMOTO, STEPHAN IRLE
     MOSCOW STATE UNIVERSITY: VLADIMIR MIRONOV

 EXECUTION OF GAMESS BEGUN Thu Jan 17 17:51:21 2019

            ECHO OF THE FIRST FEW INPUT CARDS -
 INPUT CARD> $CONTRL SCFTYP=RHF CITYP=ALDET $END                                            
 INPUT CARD> $GUESS  GUESS=HUCKEL $END                                                      
 INPUT CARD> $BASIS GBASIS=N31 NGAUSS=6 NDFUNC=1 NPFUNC=1 $END                              
 INPUT CARD> $CIDET SZ=0 GROUP=C2V NCORE=0 NACT=20 NELS=4 $END                              
 INPUT CARD> $DATA                                                                          
 INPUT CARD>LiH...HF...6-31G* basis                                                         
 INPUT CARD>Cnv   2                                                                         
 INPUT CARD>                                                                                
 INPUT CARD>Li    3.0    0.0      0.0     0.0                                               
 INPUT CARD>H     1.0    0.0      0.0     3.9                                               
 INPUT CARD> $END                                                                           
    1000000 WORDS OF MEMORY AVAILABLE

     BASIS OPTIONS
     -------------
     GBASIS=N31          IGAUSS=       6      POLAR=POPN31  
     NDFUNC=       1     NFFUNC=       0     DIFFSP=       F
     NPFUNC=       1      DIFFS=       F     BASNAM=        


     RUN TITLE
     ---------
 LiH...HF...6-31G* basis                                                         

 THE POINT GROUP OF THE MOLECULE IS CNV     
 THE ORDER OF THE PRINCIPAL AXIS IS     2

 ATOM      ATOMIC                      COORDINATES (BOHR)
           CHARGE         X                   Y                   Z
 LI          3.0     0.0000000000        0.0000000000        0.0000000000
 H           1.0     0.0000000000        0.0000000000        7.3699313521

          INTERNUCLEAR DISTANCES (ANGS.)
          ------------------------------

                1 LI         2 H     

   1 LI      0.0000000    3.9000000  
   2 H       3.9000000    0.0000000  

  * ... LESS THAN  3.000


     ATOMIC BASIS SET
     ----------------
 THE CONTRACTED PRIMITIVE FUNCTIONS HAVE BEEN UNNORMALIZED
 THE CONTRACTED BASIS FUNCTIONS ARE NOW NORMALIZED TO UNITY

  SHELL TYPE  PRIMITIVE        EXPONENT          CONTRACTION COEFFICIENT(S)

 LI        

      1   S       1           642.4189150    0.002142607810
      1   S       2            96.7985153    0.016208871501
      1   S       3            22.0911212    0.077315572504
      1   S       4             6.2010702    0.245786052013
      1   S       5             1.9351177    0.470189004025
      1   S       6             0.6367358    0.345470845019

      2   L       7             2.3249184   -0.035091745735    0.008941508043
      2   L       8             0.6324304   -0.191232843103    0.141009464046
      2   L       9             0.0790534    1.083987794916    0.945363695309

      3   L      10             0.0359620    1.000000000000    1.000000000000

      4   D      11             0.2000000    1.000000000000

 H         

      5   S      12            18.7311370    0.033494604338
      5   S      13             2.8253944    0.234726953484
      5   S      14             0.6401217    0.813757326146

      6   S      15             0.1612778    1.000000000000

      7   P      16             1.1000000    1.000000000000

 TOTAL NUMBER OF BASIS SET SHELLS             =    7
 NUMBER OF CARTESIAN GAUSSIAN BASIS FUNCTIONS =   20
 NUMBER OF ELECTRONS                          =    4
 CHARGE OF MOLECULE                           =    0
 SPIN MULTIPLICITY                            =    1
 NUMBER OF OCCUPIED ORBITALS (ALPHA)          =    2
 NUMBER OF OCCUPIED ORBITALS (BETA )          =    2
 TOTAL NUMBER OF ATOMS                        =    2
 THE NUCLEAR REPULSION ENERGY IS        0.4070594225

 THIS MOLECULE IS RECOGNIZED AS BEING LINEAR,
 ORBITAL LZ DEGENERACY TOLERANCE ETOLLZ= 1.00E-06

     $CONTRL OPTIONS
     ---------------
 SCFTYP=RHF          RUNTYP=ENERGY       EXETYP=RUN     
 MPLEVL=       0     CITYP =ALDET        CCTYP =NONE         VBTYP =NONE    
 DFTTYP=NONE         TDDFT =NONE    
 MULT  =       1     ICHARG=       0     NZVAR =       0     COORD =UNIQUE  
 PP    =NONE         RELWFN=NONE         LOCAL =NONE         NUMGRD=       F
 ISPHER=      -1     NOSYM =       0     MAXIT =      30     UNITS =ANGS    
 PLTORB=       F     MOLPLT=       F     AIMPAC=       F     FRIEND=        
 NPRINT=       7     IREST =       0     GEOM  =INPUT   
 NORMF =       0     NORMP =       0     ITOL  =      20     ICUT  =       9
 INTTYP=BEST         GRDTYP=BEST         QMTTOL= 1.0E-06

     $SYSTEM OPTIONS
     ---------------
  REPLICATED MEMORY=     1000000 WORDS (ON EVERY NODE).
 DISTRIBUTED MEMDDI=           0 MILLION WORDS IN AGGREGATE,
 MEMDDI DISTRIBUTED OVER   1 PROCESSORS IS           0 WORDS/PROCESSOR.
 TOTAL MEMORY REQUESTED ON EACH PROCESSOR=     1000000 WORDS.
 TIMLIM=      525600.00 MINUTES, OR     365.0 DAYS.
 PARALL= F  BALTYP=  DLB     KDIAG=    0  COREFL= F
 MXSEQ2=     300 MXSEQ3=     150  mem10=         0

          ----------------
          PROPERTIES INPUT
          ----------------

     MOMENTS            FIELD           POTENTIAL          DENSITY
 IEMOM =       1   IEFLD =       0   IEPOT =       0   IEDEN =       0
 WHERE =COMASS     WHERE =NUCLEI     WHERE =NUCLEI     WHERE =NUCLEI  
 OUTPUT=BOTH       OUTPUT=BOTH       OUTPUT=BOTH       OUTPUT=BOTH    
 IEMINT=       0   IEFINT=       0                     IEDINT=       0
                                                       MORB  =       0
          EXTRAPOLATION IN EFFECT
          SOSCF IN EFFECT
 ORBITAL PRINTING OPTION: NPREO=     1    20     2     1

     -------------------------------
     INTEGRAL TRANSFORMATION OPTIONS
     -------------------------------
     NWORD  =            0
     CUTOFF = 1.0E-09     MPTRAN =       0
     DIRTRF =       F     AOINTS =DUP     

          ----------------------
          INTEGRAL INPUT OPTIONS
          ----------------------
 NOPK  =       1 NORDER=       0 SCHWRZ=       F

     ------------------------------------------
     THE POINT GROUP IS CNV, NAXIS= 2, ORDER= 4
     ------------------------------------------

     DIMENSIONS OF THE SYMMETRY SUBSPACES ARE
 A1  =   11     A2  =    1     B1  =    4     B2  =    4

 ..... DONE SETTING UP THE RUN .....
 STEP CPU TIME =     0.00 TOTAL CPU TIME =        0.0 (    0.0 MIN)
 TOTAL WALL CLOCK TIME=        0.0 SECONDS, CPU UTILIZATION IS   0.00%

          ********************
          1 ELECTRON INTEGRALS
          ********************
 ...... END OF ONE-ELECTRON INTEGRALS ......
 STEP CPU TIME =     0.00 TOTAL CPU TIME =        0.0 (    0.0 MIN)
 TOTAL WALL CLOCK TIME=        0.0 SECONDS, CPU UTILIZATION IS   0.00%

          -------------
          GUESS OPTIONS
          -------------
          GUESS =HUCKEL            NORB  =       0          NORDER=       0
          MIX   =       F          PRTMO =       F          PUNMO =       F
          TOLZ  = 1.0E-08          TOLE  = 1.0E-05
          SYMDEN=       F          PURIFY=       F

 INITIAL GUESS ORBITALS GENERATED BY HUCKEL   ROUTINE.
 HUCKEL GUESS REQUIRES      4469 WORDS.

 SYMMETRIES FOR INITIAL GUESS ORBITALS FOLLOW.   BOTH SET(S).
     2 ORBITALS ARE OCCUPIED (    1 CORE ORBITALS).
     2=A1       3=A1       4=A1       5=A1       6=A1       7=A1       8=A1  
     9=A1      10=A1      11=A1      12=A2  
 ...... END OF INITIAL ORBITAL SELECTION ......
 STEP CPU TIME =     0.00 TOTAL CPU TIME =        0.0 (    0.0 MIN)
 TOTAL WALL CLOCK TIME=        0.0 SECONDS, CPU UTILIZATION IS   0.00%

                    ----------------------
                    AO INTEGRAL TECHNOLOGY
                    ----------------------
     S,P,L SHELL ROTATED AXIS INTEGRALS, REPROGRAMMED BY
        KAZUYA ISHIMURA (IMS) AND JOSE SIERRA (SYNSTAR).
     S,P,D,L SHELL ROTATED AXIS INTEGRALS PROGRAMMED BY
        KAZUYA ISHIMURA (INSTITUTE FOR MOLECULAR SCIENCE).
     S,P,D,F,G SHELL TO TOTAL QUARTET ANGULAR MOMENTUM SUM 5,
        ERIC PROGRAM BY GRAHAM FLETCHER (ELORET AND NASA ADVANCED
        SUPERCOMPUTING DIVISION, AMES RESEARCH CENTER).
     S,P,D,F,G,L SHELL GENERAL RYS QUADRATURE PROGRAMMED BY
        MICHEL DUPUIS (PACIFIC NORTHWEST NATIONAL LABORATORY).

          --------------------
          2 ELECTRON INTEGRALS
          --------------------

 THE -PK- OPTION IS OFF, THE INTEGRALS ARE NOT IN SUPERMATRIX FORM.
 STORING   15000 INTEGRALS/RECORD ON DISK, USING 12 BYTES/INTEGRAL.
 TWO ELECTRON INTEGRAL EVALUATION REQUIRES   90424 WORDS OF MEMORY.
 II,JST,KST,LST =  1  1  1  1 NREC =         1 INTLOC =    1
 II,JST,KST,LST =  2  1  1  1 NREC =         1 INTLOC =    2
 II,JST,KST,LST =  3  1  1  1 NREC =         1 INTLOC =   34
 II,JST,KST,LST =  4  1  1  1 NREC =         1 INTLOC =  214
 II,JST,KST,LST =  5  1  1  1 NREC =         1 INTLOC = 1189
 II,JST,KST,LST =  6  1  1  1 NREC =         1 INTLOC = 1835
 II,JST,KST,LST =  7  1  1  1 NREC =         1 INTLOC = 2673
 TOTAL NUMBER OF NONZERO TWO-ELECTRON INTEGRALS =                5328
          1 INTEGRAL RECORDS WERE STORED ON DISK FILE  8.
  ...... END OF TWO-ELECTRON INTEGRALS .....
 STEP CPU TIME =     0.02 TOTAL CPU TIME =        0.0 (    0.0 MIN)
 TOTAL WALL CLOCK TIME=        0.0 SECONDS, CPU UTILIZATION IS  66.67%

          --------------------------
                 RHF SCF CALCULATION
          --------------------------

     NUCLEAR ENERGY =         0.4070594225
     MAXIT =   30     NPUNCH=    2
     EXTRAP=T  DAMP=F  SHIFT=F  RSTRCT=F  DIIS=F  DEM=F  SOSCF=T
     DENSITY MATRIX CONV=  1.00E-06
     SOSCF WILL OPTIMIZE      36 ORBITAL ROTATIONS, SOGTOL=   0.250
     MEMORY REQUIRED FOR RHF ITERS=     33224 WORDS.

 ITER EX DEM     TOTAL ENERGY        E CHANGE  DENSITY CHANGE     ORB. GRAD
   1  0  0       -7.5308285055    -7.5308285055   1.167290861   0.000000000
          ---------------START SECOND ORDER SCF---------------
 SOSCF IS SCALING ROTATION ANGLE MATRIX, SQCDF=    0.185499
   2  1  0       -7.4799021624     0.0509263431   0.448789333   0.090844620
 SOSCF IS SCALING ROTATION ANGLE MATRIX, SQCDF=    0.929871
   3  2  0       -7.7489541348    -0.2690519725   1.199639428   0.096274436
   4  3  0       -7.8062845447    -0.0573304098   0.328049712   0.041120878
   5  4  0       -7.8473142606    -0.0410297159   0.108791988   0.023009499
   6  5  0       -7.8579559577    -0.0106416971   0.101058335   0.015836846
   7  6  0       -7.8624983640    -0.0045424063   0.024959501   0.003270191
   8  7  0       -7.8625416921    -0.0000433281   0.007539984   0.001291972
   9  8  0       -7.8625431013    -0.0000014092   0.009633362   0.000665706
  10  9  0       -7.8625494168    -0.0000063155   0.000322121   0.000059522
  11 10  0       -7.8625494290    -0.0000000122   0.000023853   0.000010608
  12 11  0       -7.8625494293    -0.0000000003   0.000001574   0.000000625
  13 12  0       -7.8625494293    -0.0000000000   0.000000151   0.000000078

          -----------------
          DENSITY CONVERGED
          -----------------
     TIME TO FORM FOCK OPERATORS=       0.0 SECONDS (       0.0 SEC/ITER)
     TIME TO SOLVE SCF EQUATIONS=       0.0 SECONDS (       0.0 SEC/ITER)

 FINAL RHF ENERGY IS       -7.8625494293 AFTER  13 ITERATIONS

 LZ VALUE ANALYSIS FOR THE MOS
 ----------------------------------------
 MO     1 (    1) HAS LZ(WEIGHT)= 0.00(100.0%) 
 MO     2 (    2) HAS LZ(WEIGHT)= 0.00(100.0%) 
 MO     3 (    3) HAS LZ(WEIGHT)= 0.00(100.0%) 
 MO     4 (    4) HAS LZ(WEIGHT)=-1.00( 50.0%)  1.00( 50.0%) 
 MO     5 (    4) HAS LZ(WEIGHT)=-1.00( 50.0%)  1.00( 50.0%) 
 MO     6 (    5) HAS LZ(WEIGHT)= 0.00(100.0%) 
 MO     7 (    6) HAS LZ(WEIGHT)= 0.00(100.0%) 
 MO     8 (    7) HAS LZ(WEIGHT)=-1.00( 50.0%)  1.00( 50.0%) 
 MO     9 (    7) HAS LZ(WEIGHT)=-1.00( 50.0%)  1.00( 50.0%) 
 MO    10 (    8) HAS LZ(WEIGHT)= 0.00(100.0%) 
 MO    11 (    9) HAS LZ(WEIGHT)=-2.00( 50.0%)  2.00( 50.0%) 
 MO    12 (    9) HAS LZ(WEIGHT)=-2.00( 50.0%)  2.00( 50.0%) 
 MO    13 (   10) HAS LZ(WEIGHT)=-1.00( 50.0%)  1.00( 50.0%) 
 MO    14 (   10) HAS LZ(WEIGHT)=-1.00( 50.0%)  1.00( 50.0%) 
 MO    15 (   11) HAS LZ(WEIGHT)= 0.00(100.0%) 
 MO    16 (   12) HAS LZ(WEIGHT)= 0.00(100.0%) 
 MO    17 (   13) HAS LZ(WEIGHT)= 0.00(100.0%) 
 MO    18 (   14) HAS LZ(WEIGHT)=-1.00( 50.0%)  1.00( 50.0%) 
 MO    19 (   14) HAS LZ(WEIGHT)=-1.00( 50.0%)  1.00( 50.0%) 
 MO    20 (   15) HAS LZ(WEIGHT)= 0.00(100.0%) 

          ------------
          EIGENVECTORS
          ------------

                      1          2          3          4          5
                   -2.5773    -0.1984    -0.0408     0.0271     0.0271
                     A1         A1         A1         B1         B2  
    1  LI 1  S    0.998758  -0.088794  -0.160893  -0.000000  -0.000000
    2  LI 1  S   -0.012300  -0.058904   0.045152  -0.000000  -0.000000
    3  LI 1  X    0.000000  -0.000000  -0.000000   0.220204  -0.000000
    4  LI 1  Y    0.000000  -0.000000  -0.000000  -0.000000   0.220204
    5  LI 1  Z   -0.003252   0.013475  -0.116966  -0.000000  -0.000000
    6  LI 1  S    0.001973   0.457306   0.737891  -0.000000  -0.000000
    7  LI 1  X    0.000000  -0.000000  -0.000000   0.814234  -0.000000
    8  LI 1  Y    0.000000  -0.000000  -0.000000  -0.000000   0.814234
    9  LI 1  Z    0.002227   0.211413  -0.347404  -0.000000  -0.000000
   10  LI 1 XX    0.008812   0.023739   0.038422  -0.000000  -0.000000
   11  LI 1 YY    0.008812   0.023739   0.038422  -0.000000  -0.000000
   12  LI 1 ZZ    0.008640   0.045343   0.036657  -0.000000  -0.000000
   13  LI 1 XY    0.000000  -0.000000  -0.000000  -0.000000  -0.000000
   14  LI 1 XZ    0.000000  -0.000000  -0.000000  -0.029847  -0.000000
   15  LI 1 YZ    0.000000  -0.000000  -0.000000  -0.000000  -0.029847
   16  H  2  S    0.000052   0.241730  -0.096193  -0.000000  -0.000000
   17  H  2  S   -0.000185   0.577315  -0.231421  -0.000000  -0.000000
   18  H  2  X    0.000000  -0.000000  -0.000000   0.001308  -0.000000
   19  H  2  Y    0.000000  -0.000000  -0.000000  -0.000000   0.001308
   20  H  2  Z   -0.000024  -0.001444  -0.000988  -0.000000  -0.000000

                      6          7          8          9         10
                    0.0721     0.1521     0.1706     0.1706     0.2210
                     A1         A1         B1         B2         A1  
    1  LI 1  S   -0.048517   0.058464  -0.000000  -0.000000   0.070676
    2  LI 1  S    0.625358   2.217453  -0.000000  -0.000000   2.366291
    3  LI 1  X   -0.000000  -0.000000   1.657680  -0.000000  -0.000000
    4  LI 1  Y   -0.000000  -0.000000  -0.000000   1.657680  -0.000000
    5  LI 1  Z    0.223586  -1.224008  -0.000000  -0.000000   1.170219
    6  LI 1  S   -0.178618  -1.741594  -0.000000  -0.000000  -1.900862
    7  LI 1  X   -0.000000  -0.000000  -1.462353  -0.000000  -0.000000
    8  LI 1  Y   -0.000000  -0.000000  -0.000000  -1.462353  -0.000000
    9  LI 1  Z    0.697072   0.990388  -0.000000  -0.000000  -1.253243
   10  LI 1 XX   -0.006286  -0.227544  -0.000000  -0.000000  -0.207759
   11  LI 1 YY   -0.006286  -0.227544  -0.000000  -0.000000  -0.207759
   12  LI 1 ZZ   -0.103744  -0.165795  -0.000000  -0.000000  -0.224994
   13  LI 1 XY   -0.000000  -0.000000  -0.000000  -0.000000  -0.000000
   14  LI 1 XZ   -0.000000  -0.000000  -0.046746  -0.000000  -0.000000
   15  LI 1 YZ   -0.000000  -0.000000  -0.000000  -0.046746  -0.000000
   16  H  2  S   -0.116946   0.022496  -0.000000  -0.000000   0.038318
   17  H  2  S   -0.496145   0.005740  -0.000000  -0.000000   0.396429
   18  H  2  X   -0.000000  -0.000000  -0.000919  -0.000000  -0.000000
   19  H  2  Y   -0.000000  -0.000000  -0.000000  -0.000919  -0.000000
   20  H  2  Z   -0.003759   0.002113  -0.000000  -0.000000  -0.000534

                     11         12         13         14         15
                    0.5050     0.5050     0.5122     0.5122     0.5170
                     A1         A2         B1         B2         A1  
    1  LI 1  S   -0.000000   0.000000  -0.000000  -0.000000  -0.003444
    2  LI 1  S   -0.000000   0.000000  -0.000000  -0.000000   0.017317
    3  LI 1  X   -0.000000   0.000000   0.084205  -0.000000   0.000000
    4  LI 1  Y   -0.000000   0.000000  -0.000000   0.084205   0.000000
    5  LI 1  Z   -0.000000   0.000000  -0.000000  -0.000000   0.068420
    6  LI 1  S   -0.000000   0.000000  -0.000000  -0.000000   0.026477
    7  LI 1  X   -0.000000   0.000000  -0.044145  -0.000000   0.000000
    8  LI 1  Y   -0.000000   0.000000  -0.000000  -0.044145   0.000000
    9  LI 1  Z   -0.000000   0.000000  -0.000000  -0.000000  -0.000123
   10  LI 1 XX   -0.866025   0.000000  -0.000000  -0.000000  -0.510116
   11  LI 1 YY    0.866025   0.000000  -0.000000  -0.000000  -0.510116
   12  LI 1 ZZ   -0.000000   0.000000  -0.000000  -0.000000   0.982022
   13  LI 1 XY   -0.000000   1.000000  -0.000000  -0.000000   0.000000
   14  LI 1 XZ   -0.000000   0.000000   0.998460  -0.000000   0.000000
   15  LI 1 YZ   -0.000000   0.000000  -0.000000   0.998460   0.000000
   16  H  2  S   -0.000000   0.000000  -0.000000  -0.000000  -0.076779
   17  H  2  S   -0.000000   0.000000  -0.000000  -0.000000  -0.017942
   18  H  2  X   -0.000000   0.000000   0.000731  -0.000000   0.000000
   19  H  2  Y   -0.000000   0.000000  -0.000000   0.000731   0.000000
   20  H  2  Z   -0.000000   0.000000  -0.000000  -0.000000  -0.004681

                     16         17         18         19         20
                    1.1565     1.2044     2.4645     2.4645     2.4702
                     A1         A1         B2         B1         A1  
    1  LI 1  S    0.108230   0.048807  -0.000000  -0.000000  -0.001540
    2  LI 1  S    9.151898   2.427543  -0.000000  -0.000000   0.253848
    3  LI 1  X    0.000000  -0.000000  -0.000000   0.017250   0.000000
    4  LI 1  Y    0.000000  -0.000000   0.017250  -0.000000   0.000000
    5  LI 1  Z   -0.000884   0.112325  -0.000000  -0.000000  -0.011182
    6  LI 1  S   -2.810806  -0.967667  -0.000000  -0.000000  -0.030416
    7  LI 1  X    0.000000  -0.000000  -0.000000  -0.026217   0.000000
    8  LI 1  Y    0.000000  -0.000000  -0.026217  -0.000000   0.000000
    9  LI 1  Z    0.020549  -0.265473  -0.000000  -0.000000   0.050061
   10  LI 1 XX   -3.058296  -0.698448  -0.000000  -0.000000  -0.103033
   11  LI 1 YY   -3.058296  -0.698448  -0.000000  -0.000000  -0.103033
   12  LI 1 ZZ   -3.041357  -0.824585  -0.000000  -0.000000  -0.091062
   13  LI 1 XY    0.000000  -0.000000  -0.000000  -0.000000   0.000000
   14  LI 1 XZ    0.000000  -0.000000  -0.000000  -0.000985   0.000000
   15  LI 1 YZ    0.000000  -0.000000  -0.000985  -0.000000   0.000000
   16  H  2  S    0.295642  -1.283086  -0.000000  -0.000000   0.016578
   17  H  2  S   -0.203699   1.162787  -0.000000  -0.000000  -0.031516
   18  H  2  X    0.000000  -0.000000  -0.000000   1.000104   0.000000
   19  H  2  Y    0.000000  -0.000000   1.000104  -0.000000   0.000000
   20  H  2  Z   -0.019586   0.001149  -0.000000  -0.000000   1.000769
 ...... END OF RHF CALCULATION ......
 STEP CPU TIME =     0.01 TOTAL CPU TIME =        0.0 (    0.0 MIN)
 TOTAL WALL CLOCK TIME=        0.2 SECONDS, CPU UTILIZATION IS  13.04%

     ----------------------------------------------------------------
     PROPERTY VALUES FOR THE RHF   SELF-CONSISTENT FIELD WAVEFUNCTION
     ----------------------------------------------------------------

          -----------------
          ENERGY COMPONENTS
          -----------------

         WAVEFUNCTION NORMALIZATION =       1.0000000000

                ONE ELECTRON ENERGY =     -10.9877808021
                TWO ELECTRON ENERGY =       2.7181719503
           NUCLEAR REPULSION ENERGY =       0.4070594225
                                      ------------------
                       TOTAL ENERGY =      -7.8625494293

 ELECTRON-ELECTRON POTENTIAL ENERGY =       2.7181719503
  NUCLEUS-ELECTRON POTENTIAL ENERGY =     -18.7831531934
   NUCLEUS-NUCLEUS POTENTIAL ENERGY =       0.4070594225
                                      ------------------
             TOTAL POTENTIAL ENERGY =     -15.6579218207
               TOTAL KINETIC ENERGY =       7.7953723914
                 VIRIAL RATIO (V/T) =       2.0086175534

  ...... PI ENERGY ANALYSIS ......

 ENERGY ANALYSIS:
            FOCK ENERGY=     -5.5514368741
          BARE H ENERGY=    -10.9877808021
     ELECTRONIC ENERGY =     -8.2696088381
         KINETIC ENERGY=      7.7953723914
          N-N REPULSION=      0.4070594225
           TOTAL ENERGY=     -7.8625494156
        SIGMA PART(1+2)=     -8.2696088381
               (K,V1,2)=      7.7953723914    -18.7831531934      2.7181719640
           PI PART(1+2)=      0.0000000000
               (K,V1,2)=      0.0000000000      0.0000000000      0.0000000000
  SIGMA SKELETON, ERROR=     -7.8625494156      0.0000000000
             MIXED PART= 0.00000E+00 0.00000E+00 0.00000E+00 0.00000E+00
 ...... END OF PI ENERGY ANALYSIS ......

          ---------------------------------------
          MULLIKEN AND LOWDIN POPULATION ANALYSES
          ---------------------------------------

               ----- POPULATIONS IN EACH AO -----
                             MULLIKEN      LOWDIN
              1  LI 1  S      1.99796     1.97933
              2  LI 1  S     -0.05607     0.09863
              3  LI 1  X      0.00000     0.00000
              4  LI 1  Y      0.00000     0.00000
              5  LI 1  Z      0.00725     0.03275
              6  LI 1  S      0.48768     0.31732
              7  LI 1  X      0.00000     0.00000
              8  LI 1  Y      0.00000     0.00000
              9  LI 1  Z      0.18209     0.16579
             10  LI 1 XX      0.01474     0.02318
             11  LI 1 YY      0.01474     0.02318
             12  LI 1 ZZ      0.02980     0.03677
             13  LI 1 XY      0.00000     0.00000
             14  LI 1 XZ      0.00000     0.00000
             15  LI 1 YZ      0.00000     0.00000
             16  H  2  S      0.32137     0.38654
             17  H  2  S      1.00040     0.93640
             18  H  2  X      0.00000     0.00000
             19  H  2  Y      0.00000     0.00000
             20  H  2  Z      0.00004     0.00011

          ----- MULLIKEN ATOMIC OVERLAP POPULATIONS -----
          (OFF-DIAGONAL ELEMENTS NEED TO BE MULTIPLIED BY 2)

             1           2

    1    2.5073012
    2    0.1708858   1.1509272

          TOTAL MULLIKEN AND LOWDIN ATOMIC POPULATIONS
       ATOM         MULL.POP.    CHARGE          LOW.POP.     CHARGE
    1 LI            2.678187    0.321813         2.676958    0.323042
    2 H             1.321813   -0.321813         1.323042   -0.323042

          ---------------------
          ELECTROSTATIC MOMENTS
          ---------------------

 POINT   1           X           Y           Z (BOHR)    CHARGE
                 0.000000    0.000000    0.925693        0.00 (A.U.)
         DX          DY          DZ         /D/  (DEBYE)
     0.000000    0.000000  -11.020296   11.020296
 ...... END OF PROPERTY EVALUATION ......
 STEP CPU TIME =     0.01 TOTAL CPU TIME =        0.0 (    0.0 MIN)
 TOTAL WALL CLOCK TIME=        0.2 SECONDS, CPU UTILIZATION IS  16.67%

 DETERMINANT CI OPTIONS   NRNFG   NPFLG
 INTEGRAL TRANSFORMATION    1       0
 DIAGONALIZE HAMILTONIAN    1       0
 FORM 1E- DENSITY MATRIX    1       0
 FORM 2E- DENSITY MATRIX    0       0

     --------------------------------------------------
          AMES LABORATORY DETERMINANTAL FULL CI
     PROGRAM WRITTEN BY JOE IVANIC AND KLAUS RUEDENBERG
     --------------------------------------------------

 THE POINT GROUP                  =   C2V     
 THE STATE SYMMETRY               =   A1      
 NUMBER OF CORE ORBITALS          =    0
 NUMBER OF ACTIVE ORBITALS        =   20
 NUMBER OF ALPHA ELECTRONS        =    2 (   2 ACTIVE)
 NUMBER OF BETA ELECTRONS         =    2 (   2 ACTIVE)
 NUMBER OF OCCUPIED ORBITALS      =   20
 NUMBER OF CI STATES REQUESTED    =    1
 NUMBER OF CI STARTING VECTORS    =    1
 MAX. NO. OF CI EXPANSION VECTORS =   10
 SIZE OF INITIAL CI GUESS MATRIX  =  300
 MAX. NO. OF CI ITERS/STATE       =  100
 CI DIAGONALIZATION CRITERION     = 1.00E-06
 CI PROPERTIES WILL BE FOUND FOR ROOT NUMBER   1
 1E- DENSITY MATRIX OPTIONS ARE 1

 CORRELATION ENERGY ANALYSIS      =    F

 SYMMETRIES FOR THE   0 CORE,  20 ACTIVE ARE

   ACTIVE= A1    A1    A1    B1    B2    A1    A1    B1    B2    A1  
           A1    A2    B1    B2    A1    A1    A1    B2    B1    A1  

     --------------------------------------------
     PARTIAL TWO ELECTRON INTEGRAL TRANSFORMATION
     --------------------------------------------

 NUMBER OF CORE MOLECULAR ORBITALS     =    0
 NUMBER OF OCCUPIED MOLECULAR ORBITALS =   20
 TOTAL NUMBER OF MOLECULAR ORBITALS    =   20
 TOTAL NUMBER OF ATOMIC ORBITALS       =   20
 THRESHOLD FOR KEEPING TRANSFORMED 2E- INTEGRALS = 1.000E-09
 AO INTEGRALS WILL BE READ IN FROM DISK...

 PLAN A: REQUIREMENTS FOR FULLY IN-MEMORY TRANSFORMATION:
 # OF WORDS AVAILABLE =              1000000
 # OF WORDS NEEDED    =               146042

 CHOOSING IN MEMORY PARTIAL TRANSFORMATION...
 TOTAL NUMBER OF TRANSFORMED 2E- INTEGRALS KEPT =         5962
 ... END OF INTEGRAL TRANSFORMATION ...
 STEP CPU TIME =     0.00 TOTAL CPU TIME =        0.0 (    0.0 MIN)
 TOTAL WALL CLOCK TIME=        0.2 SECONDS, CPU UTILIZATION IS  16.67%

     --------------------------------------------------
          AMES LABORATORY DETERMINANTAL FULL CI
     PROGRAM WRITTEN BY JOE IVANIC AND KLAUS RUEDENBERG
     --------------------------------------------------

 THE NUMBER OF DETERMINANTS HAVING SPACE SYMMETRY A1 
 IN POINT GROUP C2V  WITH SZ=  0.0 IS           9826
 THE DETERMINANT FULL CI REQUIRES          451749 WORDS
 INITIAL CI VECTOR GUESS TIME  :          0.0
 INITIAL FULL CI ITERATION TIME:          0.0

 ITERATION      ENERGY           GRADIENT
     0       -7.9337139655     0.05445363
     1       -7.9342373702     0.00395715
     2       -7.9342504715     0.00179017
     3       -7.9342519607     0.00042568
     4       -7.9342521764     0.00031102
     5       -7.9342523239     0.00020027
     6       -7.9342523451     0.00004872
     7       -7.9342523480     0.00002574
     8       -7.9342523485     0.00000848
     9       -7.9342523486     0.00000201
    10       -7.9342523486     0.00000056

 CONVERGED STATE    1 ENERGY=       -7.9342523486 IN   10 ITERS

 ALL STATES CONVERGED.

 CI EIGENVECTORS WILL BE LABELED IN GROUP=C2V     
 PRINTING CI COEFFICIENTS LARGER THAN 5.000E-02

 STATE   1  ENERGY=        -7.9342523486  S=  0.00  SZ=  0.00  SPACE SYM=A1  

        ALPHA         |        BETA          | CI COEFFICIENT
----------------------|----------------------|---------------
 11000000000000000000 | 11000000000000000000 |   0.7355861438
 10100000000000000000 | 10100000000000000000 |  -0.3178400186
 11000000000000000000 | 10100000000000000000 |   0.3094999664
 10100000000000000000 | 11000000000000000000 |   0.3094999664
 10100000000000000000 | 10000100000000000000 |  -0.2419954803
 10000100000000000000 | 10100000000000000000 |  -0.2419954803
 10000100000000000000 | 10000100000000000000 |  -0.1551891027
 10100000000000000000 | 10000000000000001000 |  -0.0563548563
 10000000000000001000 | 10100000000000000000 |  -0.0563548563
 ..... DONE WITH DETERMINANT CI COMPUTATION .....
 STEP CPU TIME =     0.23 TOTAL CPU TIME =        0.3 (    0.0 MIN)
 TOTAL WALL CLOCK TIME=        0.5 SECONDS, CPU UTILIZATION IS  51.92%

     ---------------------------
     ONE PARTICLE DENSITY MATRIX
     ---------------------------

 DENSITY MATRIX WILL BE SAVED FOR   1-TH STATE WITH S= 0.00

 CI EIGENSTATE   1 TOTAL ENERGY =       -7.9342523486

          NATURAL ORBITALS IN ATOMIC ORBITAL BASIS
          ----------------------------------------

                      1          2          3          4          5
                    1.9998     1.3704     0.6292     0.0002     0.0001
                     A1         A1         A1         A1         A1  
    1  LI 1  S    0.998521  -0.123614  -0.142414   0.030621   0.020829
    2  LI 1  S   -0.006809   0.145154   0.231775   0.930308   2.232818
    3  LI 1  X    0.000000  -0.000000  -0.000000  -0.000000  -0.000000
    4  LI 1  Y    0.000000  -0.000000  -0.000000  -0.000000  -0.000000
    5  LI 1  Z   -0.000939   0.008823   0.017434   0.952577   0.453203
    6  LI 1  S    0.000587   0.478236   0.521369  -0.456407  -0.944664
    7  LI 1  X    0.000000  -0.000000  -0.000000  -0.000000  -0.000000
    8  LI 1  Y    0.000000  -0.000000  -0.000000  -0.000000  -0.000000
    9  LI 1  Z    0.000702   0.054070   0.032666  -0.100665  -0.321152
   10  LI 1 XX    0.007696   0.021767   0.018215  -0.377422  -0.595423
   11  LI 1 YY    0.007696   0.021767   0.018215  -0.377422  -0.595423
   12  LI 1 ZZ    0.007671   0.029085   0.019035  -0.049325  -0.521147
   13  LI 1 XY    0.000000  -0.000000  -0.000000  -0.000000  -0.000000
   14  LI 1 XZ    0.000000  -0.000000  -0.000000  -0.000000  -0.000000
   15  LI 1 YZ    0.000000  -0.000000  -0.000000  -0.000000  -0.000000
   16  H  2  S    0.000176   0.285504  -0.329252  -0.298931   1.125947
   17  H  2  S    0.000354   0.464582  -0.465672   0.203488  -0.957241
   18  H  2  X    0.000000  -0.000000  -0.000000  -0.000000  -0.000000
   19  H  2  Y    0.000000  -0.000000  -0.000000  -0.000000  -0.000000
   20  H  2  Z   -0.000021  -0.000066  -0.000308  -0.291078  -0.154303

                      6          7          8          9         10
                    0.0001     0.0001     0.0001     0.0000     0.0000
                     B2         B1         A1         B2         B1  
    1  LI 1  S   -0.000000  -0.000000   0.144974   0.000000   0.000000
    2  LI 1  S   -0.000000  -0.000000   9.120223   0.000000   0.000000
    3  LI 1  X   -0.000000   1.150235   0.000000   0.000000  -1.062023
    4  LI 1  Y    1.150235  -0.000000   0.000000  -1.062023   0.000000
    5  LI 1  Z   -0.000000  -0.000000  -0.378256   0.000000   0.000000
    6  LI 1  S   -0.000000  -0.000000  -3.741637   0.000000   0.000000
    7  LI 1  X   -0.000000  -0.279441   0.000000   0.000000   1.164056
    8  LI 1  Y   -0.279441  -0.000000   0.000000   1.164056   0.000000
    9  LI 1  Z   -0.000000  -0.000000   0.225985   0.000000   0.000000
   10  LI 1 XX   -0.000000  -0.000000  -2.602846   0.000000   0.000000
   11  LI 1 YY   -0.000000  -0.000000  -2.602846   0.000000   0.000000
   12  LI 1 ZZ   -0.000000  -0.000000  -2.580656   0.000000   0.000000
   13  LI 1 XY   -0.000000  -0.000000   0.000000   0.000000   0.000000
   14  LI 1 XZ   -0.000000   0.131874   0.000000   0.000000   0.146451
   15  LI 1 YZ    0.131874  -0.000000   0.000000   0.146451   0.000000
   16  H  2  S   -0.000000  -0.000000  -0.282908   0.000000   0.000000
   17  H  2  S   -0.000000  -0.000000   0.381259   0.000000   0.000000
   18  H  2  X   -0.000000   0.311106   0.000000   0.000000   0.682434
   19  H  2  Y    0.311106  -0.000000   0.000000   0.682434   0.000000
   20  H  2  Z   -0.000000  -0.000000  -0.024856   0.000000   0.000000

                     11         12         13         14         15
                    0.0000     0.0000     0.0000     0.0000     0.0000
                     A1         B2         B1         A1         A1  
    1  LI 1  S    0.030297  -0.000000  -0.000000  -0.011300   0.000618
    2  LI 1  S    1.575174  -0.000000  -0.000000  -0.319865  -1.473599
    3  LI 1  X    0.000000  -0.000000  -0.583770   0.000000   0.000000
    4  LI 1  Y    0.000000  -0.583770  -0.000000   0.000000   0.000000
    5  LI 1  Z    1.112761  -0.000000  -0.000000  -0.665206   0.089131
    6  LI 1  S   -0.704514  -0.000000  -0.000000   0.171671  -0.085765
    7  LI 1  X    0.000000  -0.000000   1.119964   0.000000   0.000000
    8  LI 1  Y    0.000000   1.119964  -0.000000   0.000000   0.000000
    9  LI 1  Z   -1.189691  -0.000000  -0.000000   1.222129  -0.415878
   10  LI 1 XX   -0.341582  -0.000000  -0.000000  -0.026918   0.339677
   11  LI 1 YY   -0.341582  -0.000000  -0.000000  -0.026918   0.339677
   12  LI 1 ZZ   -0.603887  -0.000000  -0.000000   0.312968   1.595236
   13  LI 1 XY    0.000000  -0.000000  -0.000000   0.000000   0.000000
   14  LI 1 XZ    0.000000  -0.000000   0.174882   0.000000   0.000000
   15  LI 1 YZ    0.000000   0.174882  -0.000000   0.000000   0.000000
   16  H  2  S   -0.210960  -0.000000  -0.000000   0.352805  -0.122882
   17  H  2  S    0.435350  -0.000000  -0.000000  -0.607854   0.240785
   18  H  2  X    0.000000  -0.000000  -0.661063   0.000000   0.000000
   19  H  2  Y    0.000000  -0.661063  -0.000000   0.000000   0.000000
   20  H  2  Z    0.677333  -0.000000  -0.000000   0.656626   0.032277

                     16         17         18         19         20
                    0.0000     0.0000     0.0000     0.0000     0.0000
                     B2         B1         A1         A2         A1  
    1  LI 1  S   -0.000000  -0.000000   0.000000   0.000000  -0.011188
    2  LI 1  S   -0.000000  -0.000000   0.000000   0.000000   2.601710
    3  LI 1  X   -0.000000   0.109815   0.000000   0.000000   0.000000
    4  LI 1  Y    0.109815  -0.000000   0.000000   0.000000   0.000000
    5  LI 1  Z   -0.000000  -0.000000   0.000000   0.000000   0.062930
    6  LI 1  S   -0.000000  -0.000000   0.000000   0.000000   0.369240
    7  LI 1  X   -0.000000  -0.341551   0.000000   0.000000   0.000000
    8  LI 1  Y   -0.341551  -0.000000   0.000000   0.000000   0.000000
    9  LI 1  Z   -0.000000  -0.000000   0.000000   0.000000  -0.161048
   10  LI 1 XX   -0.000000  -0.000000  -0.866025   0.000000  -1.644233
   11  LI 1 YY   -0.000000  -0.000000   0.866025   0.000000  -1.644233
   12  LI 1 ZZ   -0.000000  -0.000000   0.000000   0.000000  -1.025823
   13  LI 1 XY   -0.000000  -0.000000   0.000000   1.000000   0.000000
   14  LI 1 XZ   -0.000000   0.964664   0.000000   0.000000   0.000000
   15  LI 1 YZ    0.964664  -0.000000   0.000000   0.000000   0.000000
   16  H  2  S   -0.000000  -0.000000   0.000000   0.000000   0.109870
   17  H  2  S   -0.000000  -0.000000   0.000000   0.000000  -0.179784
   18  H  2  X   -0.000000  -0.026551   0.000000   0.000000   0.000000
   19  H  2  Y   -0.026551  -0.000000   0.000000   0.000000   0.000000
   20  H  2  Z   -0.000000  -0.000000   0.000000   0.000000   0.042812
 ..... DONE WITH ONE PARTICLE DENSITY MATRIX .....
 STEP CPU TIME =     0.00 TOTAL CPU TIME =        0.3 (    0.0 MIN)
 TOTAL WALL CLOCK TIME=        0.5 SECONDS, CPU UTILIZATION IS  51.92%

     --------------------------------------------------------
     ALDET CI PROPERTIES...FOR THE WAVEFUNCTION OF STATE    1
               USING THE EXPECTATION VALUE DENSITY
     --------------------------------------------------------

          -----------------
          ENERGY COMPONENTS
          -----------------

         WAVEFUNCTION NORMALIZATION =       1.0000000000

                ONE ELECTRON ENERGY =     -11.0413764774
                TWO ELECTRON ENERGY =       2.7000647063
           NUCLEAR REPULSION ENERGY =       0.4070594225
                                      ------------------
                       TOTAL ENERGY =      -7.9342523486

 ELECTRON-ELECTRON POTENTIAL ENERGY =       2.7000647063
  NUCLEUS-ELECTRON POTENTIAL ENERGY =     -18.9810874624
   NUCLEUS-NUCLEUS POTENTIAL ENERGY =       0.4070594225
                                      ------------------
             TOTAL POTENTIAL ENERGY =     -15.8739633336
               TOTAL KINETIC ENERGY =       7.9397109850
                 VIRIAL RATIO (V/T) =       1.9993124893

          ---------------------------------------
          MULLIKEN AND LOWDIN POPULATION ANALYSES
          ---------------------------------------

               ----- POPULATIONS IN EACH AO -----
                             MULLIKEN      LOWDIN
              1  LI 1  S      1.99840     1.98548
              2  LI 1  S      0.22679     0.25579
              3  LI 1  X      0.00008     0.00007
              4  LI 1  Y      0.00008     0.00007
              5  LI 1  Z      0.00133     0.00358
              6  LI 1  S      0.67938     0.48176
              7  LI 1  X      0.00001     0.00002
              8  LI 1  Y      0.00001     0.00002
              9  LI 1  Z      0.01492     0.02518
             10  LI 1 XX      0.01980     0.07930
             11  LI 1 YY      0.01980     0.07930
             12  LI 1 ZZ      0.02497     0.08437
             13  LI 1 XY      0.00000     0.00000
             14  LI 1 XZ      0.00000     0.00000
             15  LI 1 YZ      0.00000     0.00000
             16  H  2  S      0.36819     0.39804
             17  H  2  S      0.64612     0.60684
             18  H  2  X      0.00003     0.00003
             19  H  2  Y      0.00003     0.00003
             20  H  2  Z      0.00004     0.00009

          ----- MULLIKEN ATOMIC OVERLAP POPULATIONS -----
          (OFF-DIAGONAL ELEMENTS NEED TO BE MULTIPLIED BY 2)

             1           2

    1    2.9498170
    2    0.0357729   0.9786371

          TOTAL MULLIKEN AND LOWDIN ATOMIC POPULATIONS
       ATOM         MULL.POP.    CHARGE          LOW.POP.     CHARGE
    1 LI            2.985590    0.014410         2.994965    0.005035
    2 H             1.014410   -0.014410         1.005035   -0.005035

          ---------------------
          ELECTROSTATIC MOMENTS
          ---------------------

 POINT   1           X           Y           Z (BOHR)    CHARGE
                 0.000000    0.000000    0.925693       -0.00 (A.U.)
         DX          DY          DZ         /D/  (DEBYE)
     0.000000    0.000000   -1.663840    1.663840
 ...... END OF PROPERTY EVALUATION ......
 STEP CPU TIME =     0.00 TOTAL CPU TIME =        0.3 (    0.0 MIN)
 TOTAL WALL CLOCK TIME=        0.5 SECONDS, CPU UTILIZATION IS  51.92%
               580000  WORDS OF DYNAMIC MEMORY USED
 EXECUTION OF GAMESS TERMINATED NORMALLY Thu Jan 17 17:51:21 2019
 DDI: 263640 bytes (0.3 MB / 0 MWords) used by master data server.

 ----------------------------------------
 CPU timing information for all processes
 ========================================
 0: 0.226 + 0.55 = 0.282
 1: 0.10 + 0.44 = 0.54
 ----------------------------------------
 ddikick.x: exited gracefully.
unset echo
----- accounting info -----
Files used on the master node bach.ad64.riken.go.jp were:
-rw-------  1 maho  staff      280  1 17 17:51 .//LiH.631g/3.9/LiH.631g.fullCI.3.9.gamess.F05
-rw-r--r--  1 maho  staff   180016  1 17 17:51 .//LiH.631g/3.9/LiH.631g.fullCI.3.9.gamess.F08
-rw-r--r--  1 maho  staff   181704  1 17 17:51 .//LiH.631g/3.9/LiH.631g.fullCI.3.9.gamess.F09
-rw-r--r--  1 maho  staff  1832320  1 17 17:51 .//LiH.631g/3.9/LiH.631g.fullCI.3.9.gamess.F10
-rw-r--r--  1 maho  staff    78640  1 17 17:51 .//LiH.631g/3.9/LiH.631g.fullCI.3.9.gamess.F12
-rw-r--r--  1 maho  staff    14499  1 17 17:51 .//LiH.631g/3.9/LiH.631g.fullCI.3.9.gamess.dat
-rw-------  1 maho  staff      280  1 17 17:51 .//LiH.631g/3.9/LiH.631g.fullCI.3.9.gamess.inp
-rw-r--r--  1 maho  staff    43352  1 17 17:51 .//LiH.631g/3.9/LiH.631g.fullCI.3.9.gamess.log
ls: No match.
ls: No match.
ls: No match.
2019年 1月17日 木曜日 17時51分24秒 JST
0.344u 0.194s 0:03.91 13.5%	0+0k 0+0io 0pf+0w
