----- GAMESS execution script 'rungms' -----
This job is running on host bach.ad64.riken.go.jp
under operating system Darwin at 2019年 1月17日 木曜日 17時45分36秒 JST
Available scratch disk space (Kbyte units) at beginning of the job is
Filesystem   1024-blocks       Used Available Capacity iused      ifree %iused  Mounted on
/dev/disk2s2  1953178672 1144748632 808430040    59%  984123 4293983156    0%   /Volumes/Users
GAMESS temporary binary files will be written to ./
GAMESS supplementary output files will be written to ./
Copying input file LiH.631g/1.5/LiH.631g.fullCI.1.5.gamess.inp to your run's scratch directory...
cp LiH.631g/1.5/LiH.631g.fullCI.1.5.gamess.inp .//LiH.631g/1.5/LiH.631g.fullCI.1.5.gamess.F05
unset echo
/Volumes/Users/maho/bin/gamess//ddikick.x /Volumes/Users/maho/bin/gamess//gamess.00.x LiH.631g/1.5/LiH.631g.fullCI.1.5.gamess -ddi 1 1 bach.ad64.riken.go.jp -scr ./

 Distributed Data Interface kickoff program.
 Initiating 1 compute processes on 1 nodes to run the following command:
 /Volumes/Users/maho/bin/gamess//gamess.00.x LiH.631g/1.5/LiH.631g.fullCI.1.5.gamess 

          ******************************************************
          *         GAMESS VERSION = 18 AUG 2016 (R1)          *
          *             FROM IOWA STATE UNIVERSITY             *
          * M.W.SCHMIDT, K.K.BALDRIDGE, J.A.BOATZ, S.T.ELBERT, *
          *   M.S.GORDON, J.H.JENSEN, S.KOSEKI, N.MATSUNAGA,   *
          *          K.A.NGUYEN, S.J.SU, T.L.WINDUS,           *
          *       TOGETHER WITH M.DUPUIS, J.A.MONTGOMERY       *
          *         J.COMPUT.CHEM.  14, 1347-1363(1993)        *
          **************** 64 BIT APPLE VERSION ****************

  SINCE 1993, STUDENTS AND POSTDOCS WORKING AT IOWA STATE UNIVERSITY
  AND ALSO IN THEIR VARIOUS JOBS AFTER LEAVING ISU HAVE MADE IMPORTANT
  CONTRIBUTIONS TO THE CODE:
     IVANA ADAMOVIC, CHRISTINE AIKENS, YURI ALEXEEV, POOJA ARORA,
     ANDREY ASADCHEV, ROB BELL, PRADIPTA BANDYOPADHYAY, JONATHAN BENTZ,
     BRETT BODE, KURT BRORSEN, CALEB CARLIN, GALINA CHABAN, WEI CHEN,
     CHEOL HO CHOI, PAUL DAY, ALBERT DEFUSCO, NUWAN DESILVA, TIM DUDLEY,
     DMITRI FEDOROV, GRAHAM FLETCHER, MARK FREITAG, KURT GLAESEMANN,
     DAN KEMP, GRANT MERRILL, NORIYUKI MINEZAWA, JONATHAN MULLIN,
     TAKESHI NAGATA, SEAN NEDD, HEATHER NETZLOFF, BOSILJKA NJEGIC, RYAN OLSON,
     MIKE PAK, SPENCER PRUITT, LUKE ROSKOP, JIM SHOEMAKER, LYUDMILA SLIPCHENKO,
     TONY SMITH, SAROM SOK LEANG, JIE SONG, TETSUYA TAKETSUGU, SIMON WEBB,
     PENG XU, SOOHAENG YOO, FEDERICO ZAHARIEV

  ADDITIONAL CODE HAS BEEN PROVIDED BY COLLABORATORS IN OTHER GROUPS:
     IOWA STATE UNIVERSITY:
          JOE IVANIC, AARON WEST, LAIMUTIS BYTAUTAS, KLAUS RUEDENBERG
     UNIVERSITY OF TOKYO: KIMIHIKO HIRAO, TAKAHITO NAKAJIMA,
          TAKAO TSUNEDA, MUNEAKI KAMIYA, SUSUMU YANAGISAWA,
          KIYOSHI YAGI, MAHITO CHIBA, SEIKEN TOKURA, NAOAKI KAWAKAMI
     UNIVERSITY OF AARHUS: FRANK JENSEN
     UNIVERSITY OF IOWA: VISVALDAS KAIRYS, HUI LI
     NATIONAL INST. OF STANDARDS AND TECHNOLOGY: WALT STEVENS, DAVID GARMER
     UNIVERSITY OF PISA: BENEDETTA MENNUCCI, JACOPO TOMASI
     UNIVERSITY OF MEMPHIS: HENRY KURTZ, PRAKASHAN KORAMBATH
     UNIVERSITY OF ALBERTA: TOBY ZENG, MARIUSZ KLOBUKOWSKI
     UNIVERSITY OF NEW ENGLAND: MARK SPACKMAN
     MIE UNIVERSITY: HIROAKI UMEDA
     NAT. INST. OF ADVANCED INDUSTRIAL SCIENCE AND TECHNOLOGY: KAZUO KITAURA
     MICHIGAN STATE UNIVERSITY:
          KAROL KOWALSKI, MARTA WLOCH, JEFFREY GOUR, JESSE LUTZ,
          WEI LI, PIOTR PIECUCH
     UNIVERSITY OF SILESIA: MONIKA MUSIAL, STANISLAW KUCHARSKI
     FACULTES UNIVERSITAIRES NOTRE-DAME DE LA PAIX:
          OLIVIER QUINET, BENOIT CHAMPAGNE
     UNIVERSITY OF CALIFORNIA - SANTA BARBARA: BERNARD KIRTMAN
     INSTITUTE FOR MOLECULAR SCIENCE:
          KAZUYA ISHIMURA, MICHIO KATOUDA, AND SHIGERU NAGASE
     UNIVERSITY OF NOTRE DAME: ANNA POMOGAEVA, DAN CHIPMAN
     KYUSHU UNIVERSITY:
          HARUYUKI NAKANO,
          FENG LONG GU, JACEK KORCHOWIEC, MARCIN MAKOWSKI, AND YURIKO AOKI,
          HIROTOSHI MORI AND EISAKU MIYOSHI
     PENNSYLVANIA STATE UNIVERSITY:
          TZVETELIN IORDANOV, CHET SWALINA, JONATHAN SKONE,
          SHARON HAMMES-SCHIFFER
     WASEDA UNIVERSITY:
          MASATO KOBAYASHI, TOMOKO AKAMA, TSUGUKI TOUMA,
          TAKESHI YOSHIKAWA, YASUHIRO IKABATA, JUNJI SEINO,
          YUYA NAKAJIMA, HIROMI NAKAI
     NANJING UNIVERSITY: SHUHUA LI
     UNIVERSITY OF NEBRASKA:
          PEIFENG SU, DEJUN SI, NANDUN THELLAMUREGE, YALI WANG, HUI LI
     UNIVERSITY OF ZURICH: ROBERTO PEVERATI, KIM BALDRIDGE
     N. COPERNICUS UNIVERSITY AND JACKSON STATE UNIVERSITY:
          MARIA BARYSZ
     UNIVERSITY OF COPENHAGEN: Jimmy Kromann, CASPER STEINMANN
     TOKYO INSTITUTE OF TECHNOLOGY: HIROYA NAKATA
     NAGOYA UNIVERSITY: YOSHIO NISHIMOTO, STEPHAN IRLE
     MOSCOW STATE UNIVERSITY: VLADIMIR MIRONOV

 EXECUTION OF GAMESS BEGUN Thu Jan 17 17:45:36 2019

            ECHO OF THE FIRST FEW INPUT CARDS -
 INPUT CARD> $CONTRL SCFTYP=RHF CITYP=ALDET $END                                            
 INPUT CARD> $GUESS  GUESS=HUCKEL $END                                                      
 INPUT CARD> $BASIS GBASIS=N31 NGAUSS=6 NDFUNC=1 NPFUNC=1 $END                              
 INPUT CARD> $CIDET SZ=0 GROUP=C2V NCORE=0 NACT=20 NELS=4 $END                              
 INPUT CARD> $DATA                                                                          
 INPUT CARD>LiH...HF...6-31G* basis                                                         
 INPUT CARD>Cnv   2                                                                         
 INPUT CARD>                                                                                
 INPUT CARD>Li    3.0    0.0      0.0     0.0                                               
 INPUT CARD>H     1.0    0.0      0.0     1.5                                               
 INPUT CARD> $END                                                                           
    1000000 WORDS OF MEMORY AVAILABLE

     BASIS OPTIONS
     -------------
     GBASIS=N31          IGAUSS=       6      POLAR=POPN31  
     NDFUNC=       1     NFFUNC=       0     DIFFSP=       F
     NPFUNC=       1      DIFFS=       F     BASNAM=        


     RUN TITLE
     ---------
 LiH...HF...6-31G* basis                                                         

 THE POINT GROUP OF THE MOLECULE IS CNV     
 THE ORDER OF THE PRINCIPAL AXIS IS     2

 ATOM      ATOMIC                      COORDINATES (BOHR)
           CHARGE         X                   Y                   Z
 LI          3.0     0.0000000000        0.0000000000        0.0000000000
 H           1.0     0.0000000000        0.0000000000        2.8345889816

          INTERNUCLEAR DISTANCES (ANGS.)
          ------------------------------

                1 LI         2 H     

   1 LI      0.0000000    1.5000000 *
   2 H       1.5000000 *  0.0000000  

  * ... LESS THAN  3.000


     ATOMIC BASIS SET
     ----------------
 THE CONTRACTED PRIMITIVE FUNCTIONS HAVE BEEN UNNORMALIZED
 THE CONTRACTED BASIS FUNCTIONS ARE NOW NORMALIZED TO UNITY

  SHELL TYPE  PRIMITIVE        EXPONENT          CONTRACTION COEFFICIENT(S)

 LI        

      1   S       1           642.4189150    0.002142607810
      1   S       2            96.7985153    0.016208871501
      1   S       3            22.0911212    0.077315572504
      1   S       4             6.2010702    0.245786052013
      1   S       5             1.9351177    0.470189004025
      1   S       6             0.6367358    0.345470845019

      2   L       7             2.3249184   -0.035091745735    0.008941508043
      2   L       8             0.6324304   -0.191232843103    0.141009464046
      2   L       9             0.0790534    1.083987794916    0.945363695309

      3   L      10             0.0359620    1.000000000000    1.000000000000

      4   D      11             0.2000000    1.000000000000

 H         

      5   S      12            18.7311370    0.033494604338
      5   S      13             2.8253944    0.234726953484
      5   S      14             0.6401217    0.813757326146

      6   S      15             0.1612778    1.000000000000

      7   P      16             1.1000000    1.000000000000

 TOTAL NUMBER OF BASIS SET SHELLS             =    7
 NUMBER OF CARTESIAN GAUSSIAN BASIS FUNCTIONS =   20
 NUMBER OF ELECTRONS                          =    4
 CHARGE OF MOLECULE                           =    0
 SPIN MULTIPLICITY                            =    1
 NUMBER OF OCCUPIED ORBITALS (ALPHA)          =    2
 NUMBER OF OCCUPIED ORBITALS (BETA )          =    2
 TOTAL NUMBER OF ATOMS                        =    2
 THE NUCLEAR REPULSION ENERGY IS        1.0583544985

 THIS MOLECULE IS RECOGNIZED AS BEING LINEAR,
 ORBITAL LZ DEGENERACY TOLERANCE ETOLLZ= 1.00E-06

     $CONTRL OPTIONS
     ---------------
 SCFTYP=RHF          RUNTYP=ENERGY       EXETYP=RUN     
 MPLEVL=       0     CITYP =ALDET        CCTYP =NONE         VBTYP =NONE    
 DFTTYP=NONE         TDDFT =NONE    
 MULT  =       1     ICHARG=       0     NZVAR =       0     COORD =UNIQUE  
 PP    =NONE         RELWFN=NONE         LOCAL =NONE         NUMGRD=       F
 ISPHER=      -1     NOSYM =       0     MAXIT =      30     UNITS =ANGS    
 PLTORB=       F     MOLPLT=       F     AIMPAC=       F     FRIEND=        
 NPRINT=       7     IREST =       0     GEOM  =INPUT   
 NORMF =       0     NORMP =       0     ITOL  =      20     ICUT  =       9
 INTTYP=BEST         GRDTYP=BEST         QMTTOL= 1.0E-06

     $SYSTEM OPTIONS
     ---------------
  REPLICATED MEMORY=     1000000 WORDS (ON EVERY NODE).
 DISTRIBUTED MEMDDI=           0 MILLION WORDS IN AGGREGATE,
 MEMDDI DISTRIBUTED OVER   1 PROCESSORS IS           0 WORDS/PROCESSOR.
 TOTAL MEMORY REQUESTED ON EACH PROCESSOR=     1000000 WORDS.
 TIMLIM=      525600.00 MINUTES, OR     365.0 DAYS.
 PARALL= F  BALTYP=  DLB     KDIAG=    0  COREFL= F
 MXSEQ2=     300 MXSEQ3=     150  mem10=         0

          ----------------
          PROPERTIES INPUT
          ----------------

     MOMENTS            FIELD           POTENTIAL          DENSITY
 IEMOM =       1   IEFLD =       0   IEPOT =       0   IEDEN =       0
 WHERE =COMASS     WHERE =NUCLEI     WHERE =NUCLEI     WHERE =NUCLEI  
 OUTPUT=BOTH       OUTPUT=BOTH       OUTPUT=BOTH       OUTPUT=BOTH    
 IEMINT=       0   IEFINT=       0                     IEDINT=       0
                                                       MORB  =       0
          EXTRAPOLATION IN EFFECT
          SOSCF IN EFFECT
 ORBITAL PRINTING OPTION: NPREO=     1    20     2     1

     -------------------------------
     INTEGRAL TRANSFORMATION OPTIONS
     -------------------------------
     NWORD  =            0
     CUTOFF = 1.0E-09     MPTRAN =       0
     DIRTRF =       F     AOINTS =DUP     

          ----------------------
          INTEGRAL INPUT OPTIONS
          ----------------------
 NOPK  =       1 NORDER=       0 SCHWRZ=       F

     ------------------------------------------
     THE POINT GROUP IS CNV, NAXIS= 2, ORDER= 4
     ------------------------------------------

     DIMENSIONS OF THE SYMMETRY SUBSPACES ARE
 A1  =   11     A2  =    1     B1  =    4     B2  =    4

 ..... DONE SETTING UP THE RUN .....
 STEP CPU TIME =     0.00 TOTAL CPU TIME =        0.0 (    0.0 MIN)
 TOTAL WALL CLOCK TIME=        0.0 SECONDS, CPU UTILIZATION IS   0.00%

          ********************
          1 ELECTRON INTEGRALS
          ********************
 ...... END OF ONE-ELECTRON INTEGRALS ......
 STEP CPU TIME =     0.00 TOTAL CPU TIME =        0.0 (    0.0 MIN)
 TOTAL WALL CLOCK TIME=        0.0 SECONDS, CPU UTILIZATION IS   0.00%

          -------------
          GUESS OPTIONS
          -------------
          GUESS =HUCKEL            NORB  =       0          NORDER=       0
          MIX   =       F          PRTMO =       F          PUNMO =       F
          TOLZ  = 1.0E-08          TOLE  = 1.0E-05
          SYMDEN=       F          PURIFY=       F

 INITIAL GUESS ORBITALS GENERATED BY HUCKEL   ROUTINE.
 HUCKEL GUESS REQUIRES      4469 WORDS.

 SYMMETRIES FOR INITIAL GUESS ORBITALS FOLLOW.   BOTH SET(S).
     2 ORBITALS ARE OCCUPIED (    1 CORE ORBITALS).
     2=A1       3=A1       4=A1       5=A1       6=A1       7=A1       8=A1  
     9=A1      10=A1      11=A1      12=A2  
 ...... END OF INITIAL ORBITAL SELECTION ......
 STEP CPU TIME =     0.00 TOTAL CPU TIME =        0.0 (    0.0 MIN)
 TOTAL WALL CLOCK TIME=        0.0 SECONDS, CPU UTILIZATION IS   0.00%

                    ----------------------
                    AO INTEGRAL TECHNOLOGY
                    ----------------------
     S,P,L SHELL ROTATED AXIS INTEGRALS, REPROGRAMMED BY
        KAZUYA ISHIMURA (IMS) AND JOSE SIERRA (SYNSTAR).
     S,P,D,L SHELL ROTATED AXIS INTEGRALS PROGRAMMED BY
        KAZUYA ISHIMURA (INSTITUTE FOR MOLECULAR SCIENCE).
     S,P,D,F,G SHELL TO TOTAL QUARTET ANGULAR MOMENTUM SUM 5,
        ERIC PROGRAM BY GRAHAM FLETCHER (ELORET AND NASA ADVANCED
        SUPERCOMPUTING DIVISION, AMES RESEARCH CENTER).
     S,P,D,F,G,L SHELL GENERAL RYS QUADRATURE PROGRAMMED BY
        MICHEL DUPUIS (PACIFIC NORTHWEST NATIONAL LABORATORY).

          --------------------
          2 ELECTRON INTEGRALS
          --------------------

 THE -PK- OPTION IS OFF, THE INTEGRALS ARE NOT IN SUPERMATRIX FORM.
 STORING   15000 INTEGRALS/RECORD ON DISK, USING 12 BYTES/INTEGRAL.
 TWO ELECTRON INTEGRAL EVALUATION REQUIRES   90424 WORDS OF MEMORY.
 II,JST,KST,LST =  1  1  1  1 NREC =         1 INTLOC =    1
 II,JST,KST,LST =  2  1  1  1 NREC =         1 INTLOC =    2
 II,JST,KST,LST =  3  1  1  1 NREC =         1 INTLOC =   34
 II,JST,KST,LST =  4  1  1  1 NREC =         1 INTLOC =  214
 II,JST,KST,LST =  5  1  1  1 NREC =         1 INTLOC = 1189
 II,JST,KST,LST =  6  1  1  1 NREC =         1 INTLOC = 1867
 II,JST,KST,LST =  7  1  1  1 NREC =         1 INTLOC = 2713
 TOTAL NUMBER OF NONZERO TWO-ELECTRON INTEGRALS =                5596
          1 INTEGRAL RECORDS WERE STORED ON DISK FILE  8.
  ...... END OF TWO-ELECTRON INTEGRALS .....
 STEP CPU TIME =     0.03 TOTAL CPU TIME =        0.0 (    0.0 MIN)
 TOTAL WALL CLOCK TIME=        0.0 SECONDS, CPU UTILIZATION IS 100.00%

          --------------------------
                 RHF SCF CALCULATION
          --------------------------

     NUCLEAR ENERGY =         1.0583544985
     MAXIT =   30     NPUNCH=    2
     EXTRAP=T  DAMP=F  SHIFT=F  RSTRCT=F  DIIS=F  DEM=F  SOSCF=T
     DENSITY MATRIX CONV=  1.00E-06
     SOSCF WILL OPTIMIZE      36 ORBITAL ROTATIONS, SOGTOL=   0.250
     MEMORY REQUIRED FOR RHF ITERS=     33224 WORDS.

 ITER EX DEM     TOTAL ENERGY        E CHANGE  DENSITY CHANGE     ORB. GRAD
   1  0  0       -7.8910019623    -7.8910019623   0.280933447   0.000000000
          ---------------START SECOND ORDER SCF---------------
   2  1  0       -7.9726498720    -0.0816479097   0.048828132   0.020631857
   3  2  0       -7.9780308985    -0.0053810265   0.038559027   0.007245823
   4  3  0       -7.9789772391    -0.0009463406   0.003318812   0.001217587
   5  4  0       -7.9789884824    -0.0000112433   0.000838918   0.000224509
   6  5  0       -7.9789886798    -0.0000001974   0.000107133   0.000015025
   7  6  0       -7.9789886824    -0.0000000026   0.000018286   0.000002181
   8  7  0       -7.9789886825    -0.0000000001   0.000000639   0.000000220
   9  8  0       -7.9789886825    -0.0000000000   0.000000087   0.000000034

          -----------------
          DENSITY CONVERGED
          -----------------
     TIME TO FORM FOCK OPERATORS=       0.0 SECONDS (       0.0 SEC/ITER)
     TIME TO SOLVE SCF EQUATIONS=       0.0 SECONDS (       0.0 SEC/ITER)

 FINAL RHF ENERGY IS       -7.9789886825 AFTER   9 ITERATIONS

 LZ VALUE ANALYSIS FOR THE MOS
 ----------------------------------------
 MO     1 (    1) HAS LZ(WEIGHT)= 0.00(100.0%) 
 MO     2 (    2) HAS LZ(WEIGHT)= 0.00(100.0%) 
 MO     3 (    3) HAS LZ(WEIGHT)= 0.00(100.0%) 
 MO     4 (    4) HAS LZ(WEIGHT)=-1.00( 50.0%)  1.00( 50.0%) 
 MO     5 (    4) HAS LZ(WEIGHT)=-1.00( 50.0%)  1.00( 50.0%) 
 MO     6 (    5) HAS LZ(WEIGHT)= 0.00(100.0%) 
 MO     7 (    6) HAS LZ(WEIGHT)= 0.00(100.0%) 
 MO     8 (    7) HAS LZ(WEIGHT)=-1.00( 50.0%)  1.00( 50.0%) 
 MO     9 (    7) HAS LZ(WEIGHT)=-1.00( 50.0%)  1.00( 50.0%) 
 MO    10 (    8) HAS LZ(WEIGHT)= 0.00(100.0%) 
 MO    11 (    9) HAS LZ(WEIGHT)=-1.00( 50.0%)  1.00( 50.0%) 
 MO    12 (    9) HAS LZ(WEIGHT)=-1.00( 50.0%)  1.00( 50.0%) 
 MO    13 (   10) HAS LZ(WEIGHT)=-2.00( 50.0%)  2.00( 50.0%) 
 MO    14 (   10) HAS LZ(WEIGHT)=-2.00( 50.0%)  2.00( 50.0%) 
 MO    15 (   11) HAS LZ(WEIGHT)= 0.00(100.0%) 
 MO    16 (   12) HAS LZ(WEIGHT)= 0.00(100.0%) 
 MO    17 (   13) HAS LZ(WEIGHT)= 0.00(100.0%) 
 MO    18 (   14) HAS LZ(WEIGHT)=-1.00( 50.0%)  1.00( 50.0%) 
 MO    19 (   14) HAS LZ(WEIGHT)=-1.00( 50.0%)  1.00( 50.0%) 
 MO    20 (   15) HAS LZ(WEIGHT)= 0.00(100.0%) 

          ------------
          EIGENVECTORS
          ------------

                      1          2          3          4          5
                   -2.4427    -0.3053     0.0108     0.0612     0.0612
                     A1         A1         A1         B1         B2  
    1  LI 1  S    0.997806  -0.139659  -0.138868  -0.000000  -0.000000
    2  LI 1  S   -0.009724   0.221597  -0.417292  -0.000000  -0.000000
    3  LI 1  X    0.000000  -0.000000  -0.000000   0.006591  -0.000000
    4  LI 1  Y    0.000000  -0.000000  -0.000000  -0.000000   0.006591
    5  LI 1  Z   -0.013175   0.271142  -0.162077  -0.000000  -0.000000
    6  LI 1  S   -0.000533   0.150749   1.012038  -0.000000  -0.000000
    7  LI 1  X    0.000000  -0.000000  -0.000000   0.994044  -0.000000
    8  LI 1  Y    0.000000  -0.000000  -0.000000  -0.000000   0.994044
    9  LI 1  Z    0.006316  -0.019754  -0.498737  -0.000000  -0.000000
   10  LI 1 XX    0.008597  -0.011613   0.068213  -0.000000  -0.000000
   11  LI 1 YY    0.008597  -0.011613   0.068213  -0.000000  -0.000000
   12  LI 1 ZZ    0.005092   0.042174   0.096328  -0.000000  -0.000000
   13  LI 1 XY    0.000000  -0.000000  -0.000000  -0.000000  -0.000000
   14  LI 1 XZ    0.000000  -0.000000  -0.000000  -0.026914  -0.000000
   15  LI 1 YZ    0.000000  -0.000000  -0.000000  -0.000000  -0.026914
   16  H  2  S    0.003538   0.297501  -0.060187  -0.000000  -0.000000
   17  H  2  S    0.007857   0.381817  -0.095216  -0.000000  -0.000000
   18  H  2  X    0.000000  -0.000000  -0.000000   0.005824  -0.000000
   19  H  2  Y    0.000000  -0.000000  -0.000000  -0.000000   0.005824
   20  H  2  Z   -0.001424  -0.012101   0.003108  -0.000000  -0.000000

                      6          7          8          9         10
                    0.1421     0.1948     0.2234     0.2234     0.3701
                     A1         A1         B2         B1         A1  
    1  LI 1  S   -0.041153   0.039082   0.000000   0.000000   0.095265
    2  LI 1  S   -0.480742   2.691245   0.000000   0.000000   1.986637
    3  LI 1  X    0.000000   0.000000   0.000000   1.669453   0.000000
    4  LI 1  Y    0.000000   0.000000   1.669453   0.000000   0.000000
    5  LI 1  Z   -0.595957  -0.965591   0.000000   0.000000   1.549008
    6  LI 1  S    0.947617  -2.131791   0.000000   0.000000  -0.784876
    7  LI 1  X    0.000000   0.000000   0.000000  -1.345662   0.000000
    8  LI 1  Y    0.000000   0.000000  -1.345662   0.000000   0.000000
    9  LI 1  Z    1.330930   0.599935   0.000000   0.000000  -0.597843
   10  LI 1 XX    0.071698  -0.269466   0.000000   0.000000  -0.008254
   11  LI 1 YY    0.071698  -0.269466   0.000000   0.000000  -0.008254
   12  LI 1 ZZ    0.113569  -0.235184   0.000000   0.000000  -0.405086
   13  LI 1 XY    0.000000   0.000000   0.000000   0.000000   0.000000
   14  LI 1 XZ    0.000000   0.000000   0.000000  -0.065314   0.000000
   15  LI 1 YZ    0.000000   0.000000  -0.065314   0.000000   0.000000
   16  H  2  S   -0.095876  -0.015778   0.000000   0.000000  -0.072868
   17  H  2  S   -0.565333   0.224050   0.000000   0.000000  -1.230282
   18  H  2  X    0.000000   0.000000   0.000000   0.009953   0.000000
   19  H  2  Y    0.000000   0.000000   0.009953   0.000000   0.000000
   20  H  2  Z    0.010179   0.009983   0.000000   0.000000  -0.019556

                     11         12         13         14         15
                    0.5725     0.5725     0.5831     0.5831     0.8084
                     B1         B2         A2         A1         A1  
    1  LI 1  S   -0.000000  -0.000000   0.000000   0.000000  -0.203689
    2  LI 1  S   -0.000000  -0.000000   0.000000   0.000000  -1.306500
    3  LI 1  X    0.103300  -0.000000   0.000000   0.000000   0.000000
    4  LI 1  Y   -0.000000   0.103300   0.000000   0.000000   0.000000
    5  LI 1  Z   -0.000000  -0.000000   0.000000   0.000000  -1.933836
    6  LI 1  S   -0.000000  -0.000000   0.000000   0.000000   0.052054
    7  LI 1  X   -0.058498  -0.000000   0.000000   0.000000   0.000000
    8  LI 1  Y   -0.000000  -0.058498   0.000000   0.000000   0.000000
    9  LI 1  Z   -0.000000  -0.000000   0.000000   0.000000   0.342283
   10  LI 1 XX   -0.000000  -0.000000   0.000000   0.866025   0.597327
   11  LI 1 YY   -0.000000  -0.000000   0.000000  -0.866025   0.597327
   12  LI 1 ZZ   -0.000000  -0.000000   0.000000   0.000000  -1.541806
   13  LI 1 XY   -0.000000  -0.000000   1.000000   0.000000   0.000000
   14  LI 1 XZ    0.994355  -0.000000   0.000000   0.000000   0.000000
   15  LI 1 YZ   -0.000000   0.994355   0.000000   0.000000   0.000000
   16  H  2  S   -0.000000  -0.000000   0.000000   0.000000  -0.106574
   17  H  2  S   -0.000000  -0.000000   0.000000   0.000000   2.665959
   18  H  2  X    0.013404  -0.000000   0.000000   0.000000   0.000000
   19  H  2  Y   -0.000000   0.013404   0.000000   0.000000   0.000000
   20  H  2  Z   -0.000000  -0.000000   0.000000   0.000000  -0.008465

                     16         17         18         19         20
                    1.1919     1.3906     2.5987     2.5987     2.7225
                     A1         A1         B1         B2         A1  
    1  LI 1  S    0.088798   0.147391  -0.000000  -0.000000   0.132837
    2  LI 1  S    8.807876   3.880876  -0.000000  -0.000000   1.301958
    3  LI 1  X    0.000000  -0.000000  -0.173308  -0.000000   0.000000
    4  LI 1  Y    0.000000  -0.000000  -0.000000  -0.173308   0.000000
    5  LI 1  Z    0.171580  -0.028105  -0.000000  -0.000000   1.056309
    6  LI 1  S   -2.765902  -0.942942  -0.000000  -0.000000  -0.340618
    7  LI 1  X    0.000000  -0.000000   0.076241  -0.000000   0.000000
    8  LI 1  Y    0.000000  -0.000000  -0.000000   0.076241   0.000000
    9  LI 1  Z   -0.108454   0.270150  -0.000000  -0.000000  -0.322271
   10  LI 1 XX   -3.007791  -1.095441  -0.000000  -0.000000  -0.358424
   11  LI 1 YY   -3.007791  -1.095441  -0.000000  -0.000000  -0.358424
   12  LI 1 ZZ   -2.689943  -1.575386  -0.000000  -0.000000   0.380566
   13  LI 1 XY    0.000000  -0.000000  -0.000000  -0.000000   0.000000
   14  LI 1 XZ    0.000000  -0.000000  -0.264780  -0.000000   0.000000
   15  LI 1 YZ    0.000000  -0.000000  -0.000000  -0.264780   0.000000
   16  H  2  S   -0.371226   1.379283  -0.000000  -0.000000   0.057937
   17  H  2  S    0.174740  -1.292605  -0.000000  -0.000000  -1.194906
   18  H  2  X    0.000000  -0.000000   1.037031  -0.000000   0.000000
   19  H  2  Y    0.000000  -0.000000  -0.000000   1.037031   0.000000
   20  H  2  Z    0.009688  -0.036186  -0.000000  -0.000000   1.087363
 ...... END OF RHF CALCULATION ......
 STEP CPU TIME =     0.01 TOTAL CPU TIME =        0.0 (    0.0 MIN)
 TOTAL WALL CLOCK TIME=        0.0 SECONDS, CPU UTILIZATION IS 100.00%

     ----------------------------------------------------------------
     PROPERTY VALUES FOR THE RHF   SELF-CONSISTENT FIELD WAVEFUNCTION
     ----------------------------------------------------------------

          -----------------
          ENERGY COMPONENTS
          -----------------

         WAVEFUNCTION NORMALIZATION =       1.0000000000

                ONE ELECTRON ENERGY =     -12.5786217043
                TWO ELECTRON ENERGY =       3.5412785233
           NUCLEAR REPULSION ENERGY =       1.0583544985
                                      ------------------
                       TOTAL ENERGY =      -7.9789886825

 ELECTRON-ELECTRON POTENTIAL ENERGY =       3.5412785233
  NUCLEUS-ELECTRON POTENTIAL ENERGY =     -20.6317170042
   NUCLEUS-NUCLEUS POTENTIAL ENERGY =       1.0583544985
                                      ------------------
             TOTAL POTENTIAL ENERGY =     -16.0320839825
               TOTAL KINETIC ENERGY =       8.0530952999
                 VIRIAL RATIO (V/T) =       1.9907977474

  ...... PI ENERGY ANALYSIS ......

 ENERGY ANALYSIS:
            FOCK ENERGY=     -5.4960646548
          BARE H ENERGY=    -12.5786217043
     ELECTRONIC ENERGY =     -9.0373431796
         KINETIC ENERGY=      8.0530952999
          N-N REPULSION=      1.0583544985
           TOTAL ENERGY=     -7.9789886811
        SIGMA PART(1+2)=     -9.0373431796
               (K,V1,2)=      8.0530952999    -20.6317170042      3.5412785248
           PI PART(1+2)=      0.0000000000
               (K,V1,2)=      0.0000000000      0.0000000000      0.0000000000
  SIGMA SKELETON, ERROR=     -7.9789886811      0.0000000000
             MIXED PART= 0.00000E+00 0.00000E+00 0.00000E+00 0.00000E+00
 ...... END OF PI ENERGY ANALYSIS ......

          ---------------------------------------
          MULLIKEN AND LOWDIN POPULATION ANALYSES
          ---------------------------------------

               ----- POPULATIONS IN EACH AO -----
                             MULLIKEN      LOWDIN
              1  LI 1  S      1.99769     1.98160
              2  LI 1  S      0.28775     0.18377
              3  LI 1  X      0.00000     0.00000
              4  LI 1  Y      0.00000     0.00000
              5  LI 1  Z      0.32905     0.28714
              6  LI 1  S      0.18153     0.18658
              7  LI 1  X      0.00000     0.00000
              8  LI 1  Y      0.00000     0.00000
              9  LI 1  Z     -0.01737     0.06759
             10  LI 1 XX     -0.00672     0.03872
             11  LI 1 YY     -0.00672     0.03872
             12  LI 1 ZZ      0.05863     0.19183
             13  LI 1 XY      0.00000     0.00000
             14  LI 1 XZ      0.00000     0.00000
             15  LI 1 YZ      0.00000     0.00000
             16  H  2  S      0.44582     0.41913
             17  H  2  S      0.72915     0.60361
             18  H  2  X      0.00000     0.00000
             19  H  2  Y      0.00000     0.00000
             20  H  2  Z      0.00118     0.00131

          ----- MULLIKEN ATOMIC OVERLAP POPULATIONS -----
          (OFF-DIAGONAL ELEMENTS NEED TO BE MULTIPLIED BY 2)

             1           2

    1    2.4159089
    2    0.4079439   0.7682033

          TOTAL MULLIKEN AND LOWDIN ATOMIC POPULATIONS
       ATOM         MULL.POP.    CHARGE          LOW.POP.     CHARGE
    1 LI            2.823853    0.176147         2.975950    0.024050
    2 H             1.176147   -0.176147         1.024050   -0.024050

          ---------------------
          ELECTROSTATIC MOMENTS
          ---------------------

 POINT   1           X           Y           Z (BOHR)    CHARGE
                 0.000000    0.000000    0.356036        0.00 (A.U.)
         DX          DY          DZ         /D/  (DEBYE)
     0.000000    0.000000   -5.702856    5.702856
 ...... END OF PROPERTY EVALUATION ......
 STEP CPU TIME =     0.00 TOTAL CPU TIME =        0.0 (    0.0 MIN)
 TOTAL WALL CLOCK TIME=        0.0 SECONDS, CPU UTILIZATION IS 100.00%

 DETERMINANT CI OPTIONS   NRNFG   NPFLG
 INTEGRAL TRANSFORMATION    1       0
 DIAGONALIZE HAMILTONIAN    1       0
 FORM 1E- DENSITY MATRIX    1       0
 FORM 2E- DENSITY MATRIX    0       0

     --------------------------------------------------
          AMES LABORATORY DETERMINANTAL FULL CI
     PROGRAM WRITTEN BY JOE IVANIC AND KLAUS RUEDENBERG
     --------------------------------------------------

 THE POINT GROUP                  =   C2V     
 THE STATE SYMMETRY               =   A1      
 NUMBER OF CORE ORBITALS          =    0
 NUMBER OF ACTIVE ORBITALS        =   20
 NUMBER OF ALPHA ELECTRONS        =    2 (   2 ACTIVE)
 NUMBER OF BETA ELECTRONS         =    2 (   2 ACTIVE)
 NUMBER OF OCCUPIED ORBITALS      =   20
 NUMBER OF CI STATES REQUESTED    =    1
 NUMBER OF CI STARTING VECTORS    =    1
 MAX. NO. OF CI EXPANSION VECTORS =   10
 SIZE OF INITIAL CI GUESS MATRIX  =  300
 MAX. NO. OF CI ITERS/STATE       =  100
 CI DIAGONALIZATION CRITERION     = 1.00E-06
 CI PROPERTIES WILL BE FOUND FOR ROOT NUMBER   1
 1E- DENSITY MATRIX OPTIONS ARE 1

 CORRELATION ENERGY ANALYSIS      =    F

 SYMMETRIES FOR THE   0 CORE,  20 ACTIVE ARE

   ACTIVE= A1    A1    A1    B1    B2    A1    A1    B2    B1    A1  
           B1    B2    A2    A1    A1    A1    A1    B1    B2    A1  

     --------------------------------------------
     PARTIAL TWO ELECTRON INTEGRAL TRANSFORMATION
     --------------------------------------------

 NUMBER OF CORE MOLECULAR ORBITALS     =    0
 NUMBER OF OCCUPIED MOLECULAR ORBITALS =   20
 TOTAL NUMBER OF MOLECULAR ORBITALS    =   20
 TOTAL NUMBER OF ATOMIC ORBITALS       =   20
 THRESHOLD FOR KEEPING TRANSFORMED 2E- INTEGRALS = 1.000E-09
 AO INTEGRALS WILL BE READ IN FROM DISK...

 PLAN A: REQUIREMENTS FOR FULLY IN-MEMORY TRANSFORMATION:
 # OF WORDS AVAILABLE =              1000000
 # OF WORDS NEEDED    =               146042

 CHOOSING IN MEMORY PARTIAL TRANSFORMATION...
 TOTAL NUMBER OF TRANSFORMED 2E- INTEGRALS KEPT =         5962
 ... END OF INTEGRAL TRANSFORMATION ...
 STEP CPU TIME =     0.00 TOTAL CPU TIME =        0.0 (    0.0 MIN)
 TOTAL WALL CLOCK TIME=        0.0 SECONDS, CPU UTILIZATION IS 100.00%

     --------------------------------------------------
          AMES LABORATORY DETERMINANTAL FULL CI
     PROGRAM WRITTEN BY JOE IVANIC AND KLAUS RUEDENBERG
     --------------------------------------------------

 THE NUMBER OF DETERMINANTS HAVING SPACE SYMMETRY A1 
 IN POINT GROUP C2V  WITH SZ=  0.0 IS           9826
 THE DETERMINANT FULL CI REQUIRES          451749 WORDS
 INITIAL CI VECTOR GUESS TIME  :          0.0
 INITIAL FULL CI ITERATION TIME:          0.0

 ITERATION      ENERGY           GRADIENT
     0       -8.0031142901     0.13541362
     1       -8.0067833581     0.00909619
     2       -8.0068550467     0.00393429
     3       -8.0068636714     0.00114067
     4       -8.0068651757     0.00047025
     5       -8.0068653897     0.00015445
     6       -8.0068654064     0.00003472
     7       -8.0068654073     0.00000938
     8       -8.0068654074     0.00000216
     9       -8.0068654074     0.00000036

 CONVERGED STATE    1 ENERGY=       -8.0068654074 IN    9 ITERS

 ALL STATES CONVERGED.

 CI EIGENVECTORS WILL BE LABELED IN GROUP=C2V     
 PRINTING CI COEFFICIENTS LARGER THAN 5.000E-02

 STATE   1  ENERGY=        -8.0068654074  S=  0.00  SZ=  0.00  SPACE SYM=A1  

        ALPHA         |        BETA          | CI COEFFICIENT
----------------------|----------------------|---------------
 11000000000000000000 | 11000000000000000000 |   0.9880691154
 ..... DONE WITH DETERMINANT CI COMPUTATION .....
 STEP CPU TIME =     0.25 TOTAL CPU TIME =        0.3 (    0.0 MIN)
 TOTAL WALL CLOCK TIME=        0.4 SECONDS, CPU UTILIZATION IS  80.56%

     ---------------------------
     ONE PARTICLE DENSITY MATRIX
     ---------------------------

 DENSITY MATRIX WILL BE SAVED FOR   1-TH STATE WITH S= 0.00

 CI EIGENSTATE   1 TOTAL ENERGY =       -8.0068654074

          NATURAL ORBITALS IN ATOMIC ORBITAL BASIS
          ----------------------------------------

                      1          2          3          4          5
                    1.9998     1.9555     0.0297     0.0054     0.0054
                     A1         A1         A1         B1         B2  
    1  LI 1  S    1.000040  -0.124240   0.079698   0.000000   0.000000
    2  LI 1  S   -0.010249   0.229704  -0.639759   0.000000   0.000000
    3  LI 1  X   -0.000000   0.000000   0.000000   0.810427   0.000000
    4  LI 1  Y   -0.000000   0.000000   0.000000   0.000000   0.810427
    5  LI 1  Z   -0.017467   0.266421  -0.408200   0.000000   0.000000
    6  LI 1  S   -0.004481   0.168411  -0.407212   0.000000   0.000000
    7  LI 1  X   -0.000000   0.000000   0.000000  -0.202345   0.000000
    8  LI 1  Y   -0.000000   0.000000   0.000000   0.000000  -0.202345
    9  LI 1  Z    0.006549  -0.018533  -0.102165   0.000000   0.000000
   10  LI 1 XX    0.007994  -0.008050   0.018227   0.000000   0.000000
   11  LI 1 YY    0.007994  -0.008050   0.018227   0.000000   0.000000
   12  LI 1 ZZ    0.003586   0.041076   0.050345   0.000000   0.000000
   13  LI 1 XY   -0.000000   0.000000   0.000000   0.000000   0.000000
   14  LI 1 XZ   -0.000000   0.000000   0.000000   0.563133   0.000000
   15  LI 1 YZ   -0.000000   0.000000   0.000000   0.000000   0.563133
   16  H  2  S   -0.001953   0.310337   0.745251   0.000000   0.000000
   17  H  2  S    0.001571   0.355037   0.381486   0.000000   0.000000
   18  H  2  X   -0.000000   0.000000   0.000000   0.333608   0.000000
   19  H  2  Y   -0.000000   0.000000   0.000000   0.000000   0.333608
   20  H  2  Z   -0.001296  -0.011690  -0.007814   0.000000   0.000000

                      6          7          8          9         10
                    0.0029     0.0005     0.0002     0.0002     0.0001
                     A1         A1         B1         B2         A1  
    1  LI 1  S    0.148038  -0.029963   0.000000   0.000000   0.140835
    2  LI 1  S    2.149522  -0.187306   0.000000   0.000000   1.035368
    3  LI 1  X    0.000000   0.000000  -0.663980   0.000000   0.000000
    4  LI 1  Y    0.000000   0.000000   0.000000  -0.663980   0.000000
    5  LI 1  Z    1.521977   0.371052   0.000000   0.000000   1.542064
    6  LI 1  S   -0.923835  -0.708787   0.000000   0.000000  -0.734802
    7  LI 1  X    0.000000   0.000000   0.187844   0.000000   0.000000
    8  LI 1  Y    0.000000   0.000000   0.000000   0.187844   0.000000
    9  LI 1  Z   -0.748843  -0.537337   0.000000   0.000000  -0.955643
   10  LI 1 XX   -0.339101  -0.099236   0.000000   0.000000   0.048044
   11  LI 1 YY   -0.339101  -0.099236   0.000000   0.000000   0.048044
   12  LI 1 ZZ    0.308197   0.378213   0.000000   0.000000   0.507664
   13  LI 1 XY    0.000000   0.000000   0.000000   0.000000   0.000000
   14  LI 1 XZ    0.000000   0.000000  -0.217943   0.000000   0.000000
   15  LI 1 YZ    0.000000   0.000000   0.000000  -0.217943   0.000000
   16  H  2  S    0.337955  -1.124534   0.000000   0.000000   0.027358
   17  H  2  S   -1.771327   1.295831   0.000000   0.000000  -1.171131
   18  H  2  X    0.000000   0.000000   0.937055   0.000000   0.000000
   19  H  2  Y    0.000000   0.000000   0.000000   0.937055   0.000000
   20  H  2  Z   -0.461760  -0.127804   0.000000   0.000000   0.897402

                     11         12         13         14         15
                    0.0001     0.0000     0.0000     0.0000     0.0000
                     A1         B1         B2         A1         A1  
    1  LI 1  S   -0.019892  -0.000000  -0.000000   0.175188  -0.000000
    2  LI 1  S    6.054377  -0.000000  -0.000000   7.590262  -0.000000
    3  LI 1  X    0.000000  -1.302309  -0.000000   0.000000  -0.000000
    4  LI 1  Y    0.000000  -0.000000  -1.302309   0.000000  -0.000000
    5  LI 1  Z   -1.396969  -0.000000  -0.000000   1.130418  -0.000000
    6  LI 1  S   -2.841294  -0.000000  -0.000000  -1.762839  -0.000000
    7  LI 1  X    0.000000   1.385109  -0.000000   0.000000  -0.000000
    8  LI 1  Y    0.000000  -0.000000   1.385109   0.000000  -0.000000
    9  LI 1  Z    0.244182  -0.000000  -0.000000  -0.338609  -0.000000
   10  LI 1 XX   -1.597558  -0.000000  -0.000000  -2.729967  -0.866025
   11  LI 1 YY   -1.597558  -0.000000  -0.000000  -2.729967   0.866025
   12  LI 1 ZZ   -2.147428  -0.000000  -0.000000  -2.356041  -0.000000
   13  LI 1 XY    0.000000  -0.000000  -0.000000   0.000000  -0.000000
   14  LI 1 XZ    0.000000   0.523806  -0.000000   0.000000  -0.000000
   15  LI 1 YZ    0.000000  -0.000000   0.523806   0.000000  -0.000000
   16  H  2  S   -0.072629  -0.000000  -0.000000   0.248027  -0.000000
   17  H  2  S    1.229387  -0.000000  -0.000000  -1.056166  -0.000000
   18  H  2  X    0.000000  -0.179069  -0.000000   0.000000  -0.000000
   19  H  2  Y    0.000000  -0.000000  -0.179069   0.000000  -0.000000
   20  H  2  Z   -0.069475  -0.000000  -0.000000   0.156164  -0.000000

                     16         17         18         19         20
                    0.0000     0.0000     0.0000     0.0000     0.0000
                     A2         B2         B1         A1         A1  
    1  LI 1  S    0.000000   0.000000   0.000000   0.151603   0.129855
    2  LI 1  S    0.000000   0.000000   0.000000   1.924555   1.877433
    3  LI 1  X    0.000000   0.000000  -0.184806   0.000000   0.000000
    4  LI 1  Y    0.000000  -0.184806   0.000000   0.000000   0.000000
    5  LI 1  Z    0.000000   0.000000   0.000000   0.601287  -0.108511
    6  LI 1  S    0.000000   0.000000   0.000000  -0.501714  -1.497103
    7  LI 1  X    0.000000   0.000000   0.901893   0.000000   0.000000
    8  LI 1  Y    0.000000   0.901893   0.000000   0.000000   0.000000
    9  LI 1  Z    0.000000   0.000000   0.000000   0.571280   0.877170
   10  LI 1 XX    0.000000   0.000000   0.000000  -0.822209  -0.078741
   11  LI 1 YY    0.000000   0.000000   0.000000  -0.822209  -0.078741
   12  LI 1 ZZ    0.000000   0.000000   0.000000   1.166151  -0.678784
   13  LI 1 XY    1.000000   0.000000   0.000000   0.000000   0.000000
   14  LI 1 XZ    0.000000   0.000000  -0.651806   0.000000   0.000000
   15  LI 1 YZ    0.000000  -0.651806   0.000000   0.000000   0.000000
   16  H  2  S    0.000000   0.000000   0.000000  -0.099313   0.232231
   17  H  2  S    0.000000   0.000000   0.000000  -1.758791  -0.307685
   18  H  2  X    0.000000   0.000000   0.233056   0.000000   0.000000
   19  H  2  Y    0.000000   0.233056   0.000000   0.000000   0.000000
   20  H  2  Z    0.000000   0.000000   0.000000   0.346060  -0.022762
 ..... DONE WITH ONE PARTICLE DENSITY MATRIX .....
 STEP CPU TIME =     0.00 TOTAL CPU TIME =        0.3 (    0.0 MIN)
 TOTAL WALL CLOCK TIME=        0.4 SECONDS, CPU UTILIZATION IS  80.56%

     --------------------------------------------------------
     ALDET CI PROPERTIES...FOR THE WAVEFUNCTION OF STATE    1
               USING THE EXPECTATION VALUE DENSITY
     --------------------------------------------------------

          -----------------
          ENERGY COMPONENTS
          -----------------

         WAVEFUNCTION NORMALIZATION =       1.0000000000

                ONE ELECTRON ENERGY =     -12.5482676049
                TWO ELECTRON ENERGY =       3.4830476991
           NUCLEAR REPULSION ENERGY =       1.0583544985
                                      ------------------
                       TOTAL ENERGY =      -8.0068654074

 ELECTRON-ELECTRON POTENTIAL ENERGY =       3.4830476991
  NUCLEUS-ELECTRON POTENTIAL ENERGY =     -20.6341365878
   NUCLEUS-NUCLEUS POTENTIAL ENERGY =       1.0583544985
                                      ------------------
             TOTAL POTENTIAL ENERGY =     -16.0927343902
               TOTAL KINETIC ENERGY =       8.0858689829
                 VIRIAL RATIO (V/T) =       1.9902294267

          ---------------------------------------
          MULLIKEN AND LOWDIN POPULATION ANALYSES
          ---------------------------------------

               ----- POPULATIONS IN EACH AO -----
                             MULLIKEN      LOWDIN
              1  LI 1  S      1.99762     1.98163
              2  LI 1  S      0.31070     0.19499
              3  LI 1  X      0.00306     0.00232
              4  LI 1  Y      0.00306     0.00232
              5  LI 1  Z      0.30769     0.26452
              6  LI 1  S      0.21035     0.20514
              7  LI 1  X     -0.00051     0.00021
              8  LI 1  Y     -0.00051     0.00021
              9  LI 1  Z     -0.01465     0.06293
             10  LI 1 XX     -0.00484     0.04454
             11  LI 1 YY     -0.00484     0.04454
             12  LI 1 ZZ      0.05624     0.18883
             13  LI 1 XY      0.00001     0.00001
             14  LI 1 XZ      0.00197     0.00194
             15  LI 1 YZ      0.00197     0.00194
             16  H  2  S      0.46784     0.43022
             17  H  2  S      0.66039     0.56865
             18  H  2  X      0.00116     0.00121
             19  H  2  Y      0.00116     0.00121
             20  H  2  Z      0.00213     0.00264

          ----- MULLIKEN ATOMIC OVERLAP POPULATIONS -----
          (OFF-DIAGONAL ELEMENTS NEED TO BE MULTIPLIED BY 2)

             1           2

    1    2.4956026
    2    0.3717202   0.7609571

          TOTAL MULLIKEN AND LOWDIN ATOMIC POPULATIONS
       ATOM         MULL.POP.    CHARGE          LOW.POP.     CHARGE
    1 LI            2.867323    0.132677         2.996072    0.003928
    2 H             1.132677   -0.132677         1.003928   -0.003928

          ---------------------
          ELECTROSTATIC MOMENTS
          ---------------------

 POINT   1           X           Y           Z (BOHR)    CHARGE
                 0.000000    0.000000    0.356036        0.00 (A.U.)
         DX          DY          DZ         /D/  (DEBYE)
     0.000000    0.000000   -5.438993    5.438993
 ...... END OF PROPERTY EVALUATION ......
 STEP CPU TIME =     0.00 TOTAL CPU TIME =        0.3 (    0.0 MIN)
 TOTAL WALL CLOCK TIME=        0.4 SECONDS, CPU UTILIZATION IS  80.56%
               580000  WORDS OF DYNAMIC MEMORY USED
 EXECUTION OF GAMESS TERMINATED NORMALLY Thu Jan 17 17:45:36 2019
 DDI: 263640 bytes (0.3 MB / 0 MWords) used by master data server.

 ----------------------------------------
 CPU timing information for all processes
 ========================================
 0: 0.237 + 0.66 = 0.303
 1: 0.10 + 0.53 = 0.64
 ----------------------------------------
 ddikick.x: exited gracefully.
unset echo
----- accounting info -----
Files used on the master node bach.ad64.riken.go.jp were:
-rw-------  1 maho  staff      280  1 17 17:45 .//LiH.631g/1.5/LiH.631g.fullCI.1.5.gamess.F05
-rw-r--r--  1 maho  staff   180016  1 17 17:45 .//LiH.631g/1.5/LiH.631g.fullCI.1.5.gamess.F08
-rw-r--r--  1 maho  staff   181704  1 17 17:45 .//LiH.631g/1.5/LiH.631g.fullCI.1.5.gamess.F09
-rw-r--r--  1 maho  staff  1832320  1 17 17:45 .//LiH.631g/1.5/LiH.631g.fullCI.1.5.gamess.F10
-rw-r--r--  1 maho  staff    78640  1 17 17:45 .//LiH.631g/1.5/LiH.631g.fullCI.1.5.gamess.F12
-rw-r--r--  1 maho  staff    14499  1 17 17:45 .//LiH.631g/1.5/LiH.631g.fullCI.1.5.gamess.dat
-rw-------  1 maho  staff      280  1 17 17:45 .//LiH.631g/1.5/LiH.631g.fullCI.1.5.gamess.inp
-rw-r--r--  1 maho  staff    42390  1 17 17:45 .//LiH.631g/1.5/LiH.631g.fullCI.1.5.gamess.log
ls: No match.
ls: No match.
ls: No match.
2019年 1月17日 木曜日 17時45分39秒 JST
0.363u 0.236s 0:03.61 16.3%	0+0k 0+1io 0pf+0w
