----- GAMESS execution script 'rungms' -----
This job is running on host localhost
under operating system Linux at Thu Jan 17 19:18:54 JST 2019
Available scratch disk space (Kbyte units) at beginning of the job is
Filesystem     1K-blocks      Used Available Use% Mounted on
/dev/sda1      895286904 141748064 708037812  17% /
GAMESS temporary binary files will be written to .
GAMESS supplementary output files will be written to .
Copying input file N2.SV/4.8/N2.SV.fullCI.4.8.gamess.inp to your run's scratch directory...
cp N2.SV/4.8/N2.SV.fullCI.4.8.gamess.inp ./N2.SV/4.8/N2.SV.fullCI.4.8.gamess.F05
unset echo
/work/pubchem/pm6/pkg/gamess_intel/ddikick.x /work/pubchem/pm6/pkg/gamess_intel/gamess.00.x N2.SV/4.8/N2.SV.fullCI.4.8.gamess -ddi 12 12 localhost localhost localhost localhost localhost localhost localhost localhost localhost localhost localhost localhost -scr .

 Distributed Data Interface kickoff program.
 Initiating 12 compute processes on 12 nodes to run the following command:
 /work/pubchem/pm6/pkg/gamess_intel/gamess.00.x N2.SV/4.8/N2.SV.fullCI.4.8.gamess 

          ******************************************************
          *         GAMESS VERSION =  5 DEC 2014 (R1)          *
          *             FROM IOWA STATE UNIVERSITY             *
          * M.W.SCHMIDT, K.K.BALDRIDGE, J.A.BOATZ, S.T.ELBERT, *
          *   M.S.GORDON, J.H.JENSEN, S.KOSEKI, N.MATSUNAGA,   *
          *          K.A.NGUYEN, S.J.SU, T.L.WINDUS,           *
          *       TOGETHER WITH M.DUPUIS, J.A.MONTGOMERY       *
          *         J.COMPUT.CHEM.  14, 1347-1363(1993)        *
          **************** 64 BIT INTEL VERSION ****************

  SINCE 1993, STUDENTS AND POSTDOCS WORKING AT IOWA STATE UNIVERSITY
  AND ALSO IN THEIR VARIOUS JOBS AFTER LEAVING ISU HAVE MADE IMPORTANT
  CONTRIBUTIONS TO THE CODE:
     IVANA ADAMOVIC, CHRISTINE AIKENS, YURI ALEXEEV, POOJA ARORA,
     ANDREY ASADCHEV, ROB BELL, PRADIPTA BANDYOPADHYAY, JONATHAN BENTZ,
     BRETT BODE, KURT BRORSEN, CALEB CARLIN, GALINA CHABAN, WEI CHEN,
     CHEOL HO CHOI, PAUL DAY, ALBERT DEFUSCO, NUWAN DESILVA, TIM DUDLEY,
     DMITRI FEDOROV, GRAHAM FLETCHER, MARK FREITAG, KURT GLAESEMANN,
     DAN KEMP, GRANT MERRILL, NORIYUKI MINEZAWA, JONATHAN MULLIN,
     TAKESHI NAGATA, SEAN NEDD, HEATHER NETZLOFF, BOSILJKA NJEGIC, RYAN OLSON,
     MIKE PAK, SPENCER PRUITT, LUKE ROSKOP, JIM SHOEMAKER, LYUDMILA SLIPCHENKO,
     TONY SMITH, SAROM SOK, JIE SONG, TETSUYA TAKETSUGU, SIMON WEBB,
     PENG XU, SOOHAENG YOO, FEDERICO ZAHARIEV

  ADDITIONAL CODE HAS BEEN PROVIDED BY COLLABORATORS IN OTHER GROUPS:
     IOWA STATE UNIVERSITY:
          JOE IVANIC, AARON WEST, LAIMUTIS BYTAUTAS, KLAUS RUEDENBERG
     UNIVERSITY OF TOKYO: KIMIHIKO HIRAO, TAKAHITO NAKAJIMA,
          TAKAO TSUNEDA, MUNEAKI KAMIYA, SUSUMU YANAGISAWA,
          KIYOSHI YAGI, MAHITO CHIBA, SEIKEN TOKURA, NAOAKI KAWAKAMI
     UNIVERSITY OF AARHUS: FRANK JENSEN
     UNIVERSITY OF IOWA: VISVALDAS KAIRYS, HUI LI
     NATIONAL INST. OF STANDARDS AND TECHNOLOGY: WALT STEVENS, DAVID GARMER
     UNIVERSITY OF PISA: BENEDETTA MENNUCCI, JACOPO TOMASI
     UNIVERSITY OF MEMPHIS: HENRY KURTZ, PRAKASHAN KORAMBATH
     UNIVERSITY OF ALBERTA: TOBY ZENG, MARIUSZ KLOBUKOWSKI
     UNIVERSITY OF NEW ENGLAND: MARK SPACKMAN
     MIE UNIVERSITY: HIROAKI UMEDA
     NAT. INST. OF ADVANCED INDUSTRIAL SCIENCE AND TECHNOLOGY: KAZUO KITAURA
     MICHIGAN STATE UNIVERSITY:
          KAROL KOWALSKI, MARTA WLOCH, JEFFREY GOUR, JESSE LUTZ,
          WEI LI, PIOTR PIECUCH
     UNIVERSITY OF SILESIA: MONIKA MUSIAL, STANISLAW KUCHARSKI
     FACULTES UNIVERSITAIRES NOTRE-DAME DE LA PAIX:
          OLIVIER QUINET, BENOIT CHAMPAGNE
     UNIVERSITY OF CALIFORNIA - SANTA BARBARA: BERNARD KIRTMAN
     INSTITUTE FOR MOLECULAR SCIENCE:
          KAZUYA ISHIMURA, MICHIO KATOUDA, AND SHIGERU NAGASE
     UNIVERSITY OF NOTRE DAME: ANNA POMOGAEVA, DAN CHIPMAN
     KYUSHU UNIVERSITY:
          HARUYUKI NAKANO,
          FENG LONG GU, JACEK KORCHOWIEC, MARCIN MAKOWSKI, AND YURIKO AOKI,
          HIROTOSHI MORI AND EISAKU MIYOSHI
     PENNSYLVANIA STATE UNIVERSITY:
          TZVETELIN IORDANOV, CHET SWALINA, JONATHAN SKONE,
          SHARON HAMMES-SCHIFFER
     WASEDA UNIVERSITY:
          MASATO KOBAYASHI, TOMOKO AKAMA, TSUGUKI TOUMA,
          TAKESHI YOSHIKAWA, YASUHIRO IKABATA, HIROMI NAKAI
     NANJING UNIVERSITY: SHUHUA LI
     UNIVERSITY OF NEBRASKA:
          PEIFENG SU, DEJUN SI, NANDUN THELLAMUREGE, YALI WANG, HUI LI
     UNIVERSITY OF ZURICH: ROBERTO PEVERATI, KIM BALDRIDGE
     N. COPERNICUS UNIVERSITY AND JACKSON STATE UNIVERSITY:
          MARIA BARYSZ
     UNIVERSITY OF COPENHAGEN: CASPER STEINMANN
     TOKYO INSTITUTE OF TECHNOLOGY: HIROYA NAKATA
     NAGOYA UNIVERSITY: YOSHIO NISHIMOTO, STEPHAN IRLE


 PARALLEL VERSION RUNNING ON       12 PROCESSORS IN       12 NODES.

 EXECUTION OF GAMESS BEGUN Thu Jan 17 19:18:54 2019

            ECHO OF THE FIRST FEW INPUT CARDS -
 INPUT CARD> $CONTRL SCFTYP=RHF CITYP=ALDET $END                                            
 INPUT CARD> $GUESS GUESS=HUCKEL $END                                                       
 INPUT CARD> $SYSTEM MWORDS=300 $END                                                        
 INPUT CARD> $CIDET SZ=0 GROUP=C2V NCORE=2 NACT=16 NELS=10 NSTGSS=6 $END                    
 INPUT CARD> $DATA                                                                          
 INPUT CARD>N2...HF...Double-zeta basis                                                     
 INPUT CARD>Cnv   2                                                                         
 INPUT CARD>                                                                                
 INPUT CARD>N     7.0    0.0      0.0     0.0                                               
 INPUT CARD>S   7                                                                           
 INPUT CARD>  1   5909.0000000              0.0011900                                       
 INPUT CARD>  2    887.5000000              0.0090990                                       
 INPUT CARD>  3    204.7000000              0.0441450                                       
 INPUT CARD>  4     59.8400000              0.1504640                                       
 INPUT CARD>  5     20.0000000              0.3567410                                       
 INPUT CARD>  6      7.1930000              0.4465330                                       
 INPUT CARD>  7      2.6860000              0.1456030                                       
 INPUT CARD>S   2                                                                           
 INPUT CARD>  1      7.1930000             -0.1604050                                       
 INPUT CARD>  2      0.7000000              1.0582150                                       
 INPUT CARD>S   1                                                                           
 INPUT CARD>  1      0.2133000              1.0000000                                       
 INPUT CARD>P   4                                                                           
 INPUT CARD>  1     26.7900000              0.0182540                                       
 INPUT CARD>  2      5.9560000              0.1164610                                       
 INPUT CARD>  3      1.7070000              0.3901780                                       
 INPUT CARD>  4      0.5314000              0.6371020                                       
 INPUT CARD>P   1                                                                           
 INPUT CARD>  1      0.1654000              1.0000000                                       
 INPUT CARD>                                                                                
 INPUT CARD>N     7.0    0.0      0.0     4.8                                               
 INPUT CARD>S   7                                                                           
 INPUT CARD>  1   5909.0000000              0.0011900                                       
 INPUT CARD>  2    887.5000000              0.0090990                                       
 INPUT CARD>  3    204.7000000              0.0441450                                       
 INPUT CARD>  4     59.8400000              0.1504640                                       
 INPUT CARD>  5     20.0000000              0.3567410                                       
 INPUT CARD>  6      7.1930000              0.4465330                                       
 INPUT CARD>  7      2.6860000              0.1456030                                       
 INPUT CARD>S   2                                                                           
 INPUT CARD>  1      7.1930000             -0.1604050                                       
 INPUT CARD>  2      0.7000000              1.0582150                                       
 INPUT CARD>S   1                                                                           
 INPUT CARD>  1      0.2133000              1.0000000                                       
 INPUT CARD>P   4                                                                           
 INPUT CARD>  1     26.7900000              0.0182540                                       
 INPUT CARD>  2      5.9560000              0.1164610                                       
 INPUT CARD>  3      1.7070000              0.3901780                                       
 INPUT CARD>  4      0.5314000              0.6371020                                       
 INPUT CARD>P   1                                                                           
  300000000 WORDS OF MEMORY AVAILABLE


     RUN TITLE
     ---------
 N2...HF...Double-zeta basis                                                     

 THE POINT GROUP OF THE MOLECULE IS CNV     
 THE ORDER OF THE PRINCIPAL AXIS IS     2

 ATOM      ATOMIC                      COORDINATES (BOHR)
           CHARGE         X                   Y                   Z
 N           7.0     0.0000000000        0.0000000000        0.0000000000
 N           7.0     0.0000000000        0.0000000000        9.0706847411

          INTERNUCLEAR DISTANCES (ANGS.)
          ------------------------------

                1 N          2 N     

   1 N       0.0000000    4.8000000  
   2 N       4.8000000    0.0000000  

  * ... LESS THAN  3.000


     ATOMIC BASIS SET
     ----------------
 THE CONTRACTED PRIMITIVE FUNCTIONS HAVE BEEN UNNORMALIZED
 THE CONTRACTED BASIS FUNCTIONS ARE NOW NORMALIZED TO UNITY

  SHELL TYPE  PRIMITIVE        EXPONENT          CONTRACTION COEFFICIENT(S)

 N         

      1   S       1          5909.0000000    0.001189999548
      1   S       2           887.5000000    0.009098996542
      1   S       3           204.7000000    0.044144983225
      1   S       4            59.8400000    0.150463942825
      1   S       5            20.0000000    0.356740864442
      1   S       6             7.1930000    0.446532830321
      1   S       7             2.6860000    0.145602944672

      2   S       8             7.1930000   -0.160405033446
      2   S       9             0.7000000    1.058215220651

      3   S      10             0.2133000    1.000000000000

      4   P      11            26.7900000    0.018253998243
      4   P      12             5.9560000    0.116460988791
      4   P      13             1.7070000    0.390177962446
      4   P      14             0.5314000    0.637101938680

      5   P      15             0.1654000    1.000000000000

 N         

      6   S      16          5909.0000000    0.001189999548
      6   S      17           887.5000000    0.009098996542
      6   S      18           204.7000000    0.044144983225
      6   S      19            59.8400000    0.150463942825
      6   S      20            20.0000000    0.356740864442
      6   S      21             7.1930000    0.446532830321
      6   S      22             2.6860000    0.145602944672

      7   S      23             7.1930000   -0.160405033446
      7   S      24             0.7000000    1.058215220651

      8   S      25             0.2133000    1.000000000000

      9   P      26            26.7900000    0.018253998243
      9   P      27             5.9560000    0.116460988791
      9   P      28             1.7070000    0.390177962446
      9   P      29             0.5314000    0.637101938680

     10   P      30             0.1654000    1.000000000000

 TOTAL NUMBER OF BASIS SET SHELLS             =   10
 NUMBER OF CARTESIAN GAUSSIAN BASIS FUNCTIONS =   18
 NUMBER OF ELECTRONS                          =   14
 CHARGE OF MOLECULE                           =    0
 SPIN MULTIPLICITY                            =    1
 NUMBER OF OCCUPIED ORBITALS (ALPHA)          =    7
 NUMBER OF OCCUPIED ORBITALS (BETA )          =    7
 TOTAL NUMBER OF ATOMS                        =    2
 THE NUCLEAR REPULSION ENERGY IS        5.4020177527

 THIS MOLECULE IS RECOGNIZED AS BEING LINEAR,
 ORBITAL LZ DEGENERACY TOLERANCE ETOLLZ= 1.00E-06

     $CONTRL OPTIONS
     ---------------
 SCFTYP=RHF          RUNTYP=ENERGY       EXETYP=RUN     
 MPLEVL=       0     CITYP =ALDET        CCTYP =NONE         VBTYP =NONE    
 DFTTYP=NONE         TDDFT =NONE    
 MULT  =       1     ICHARG=       0     NZVAR =       0     COORD =UNIQUE  
 PP    =NONE         RELWFN=NONE         LOCAL =NONE         NUMGRD=       F
 ISPHER=      -1     NOSYM =       0     MAXIT =      30     UNITS =ANGS    
 PLTORB=       F     MOLPLT=       F     AIMPAC=       F     FRIEND=        
 NPRINT=       7     IREST =       0     GEOM  =INPUT   
 NORMF =       0     NORMP =       0     ITOL  =      20     ICUT  =       9
 INTTYP=BEST         GRDTYP=BEST         QMTTOL= 1.0E-06

     $SYSTEM OPTIONS
     ---------------
  REPLICATED MEMORY=   300000000 WORDS (ON EVERY NODE).
 DISTRIBUTED MEMDDI=           0 MILLION WORDS IN AGGREGATE,
 MEMDDI DISTRIBUTED OVER  12 PROCESSORS IS           0 WORDS/PROCESSOR.
 TOTAL MEMORY REQUESTED ON EACH PROCESSOR=   300000000 WORDS.
 TIMLIM=      525600.00 MINUTES, OR     365.0 DAYS.
 PARALL= T  BALTYP=  DLB     KDIAG=    0  COREFL= F
 MXSEQ2=     300 MXSEQ3=     150  mem10=         0

          ----------------
          PROPERTIES INPUT
          ----------------

     MOMENTS            FIELD           POTENTIAL          DENSITY
 IEMOM =       1   IEFLD =       0   IEPOT =       0   IEDEN =       0
 WHERE =COMASS     WHERE =NUCLEI     WHERE =NUCLEI     WHERE =NUCLEI  
 OUTPUT=BOTH       OUTPUT=BOTH       OUTPUT=BOTH       OUTPUT=BOTH    
 IEMINT=       0   IEFINT=       0                     IEDINT=       0
                                                       MORB  =       0
          EXTRAPOLATION IN EFFECT
          SOSCF IN EFFECT
 ORBITAL PRINTING OPTION: NPREO=     1    18     2     1

     -------------------------------
     INTEGRAL TRANSFORMATION OPTIONS
     -------------------------------
     NWORD  =            0
     CUTOFF = 1.0E-09     MPTRAN =       0
     DIRTRF =       F     AOINTS =DUP     

          ----------------------
          INTEGRAL INPUT OPTIONS
          ----------------------
 NOPK  =       1 NORDER=       0 SCHWRZ=       F

     ------------------------------------------
     THE POINT GROUP IS CNV, NAXIS= 2, ORDER= 4
     ------------------------------------------

     DIMENSIONS OF THE SYMMETRY SUBSPACES ARE
 A1  =   10     A2  =    0     B1  =    4     B2  =    4

 ..... DONE SETTING UP THE RUN .....
 CPU     0: STEP CPU TIME=     0.02 TOTAL CPU TIME=        0.0 (    0.0 MIN)
 TOTAL WALL CLOCK TIME=        0.0 SECONDS, CPU UTILIZATION IS 100.00%

          ********************
          1 ELECTRON INTEGRALS
          ********************
 ...... END OF ONE-ELECTRON INTEGRALS ......
 CPU     0: STEP CPU TIME=     0.00 TOTAL CPU TIME=        0.0 (    0.0 MIN)
 TOTAL WALL CLOCK TIME=        0.1 SECONDS, CPU UTILIZATION IS  40.00%

          -------------
          GUESS OPTIONS
          -------------
          GUESS =HUCKEL            NORB  =       0          NORDER=       0
          MIX   =       F          PRTMO =       F          PUNMO =       F
          TOLZ  = 1.0E-08          TOLE  = 1.0E-05
          SYMDEN=       F          PURIFY=       F

 INITIAL GUESS ORBITALS GENERATED BY HUCKEL   ROUTINE.
 HUCKEL GUESS REQUIRES      4352 WORDS.

 SYMMETRIES FOR INITIAL GUESS ORBITALS FOLLOW.   BOTH SET(S).
     7 ORBITALS ARE OCCUPIED (    2 CORE ORBITALS).
     3=A1       4=A1       5=A1       6=B1       7=B2       8=B1       9=B2  
    10=A1      11=A1      12=A1      13=A1      14=A1      15=B1      16=B1  
    17=B2  
 ...... END OF INITIAL ORBITAL SELECTION ......
 CPU     0: STEP CPU TIME=     0.00 TOTAL CPU TIME=        0.0 (    0.0 MIN)
 TOTAL WALL CLOCK TIME=        0.1 SECONDS, CPU UTILIZATION IS  40.00%

                    ----------------------
                    AO INTEGRAL TECHNOLOGY
                    ----------------------
     S,P,L SHELL ROTATED AXIS INTEGRALS, REPROGRAMMED BY
        KAZUYA ISHIMURA (IMS) AND JOSE SIERRA (SYNSTAR).
     S,P,D,L SHELL ROTATED AXIS INTEGRALS PROGRAMMED BY
        KAZUYA ISHIMURA (INSTITUTE FOR MOLECULAR SCIENCE).
     S,P,D,F,G SHELL TO TOTAL QUARTET ANGULAR MOMENTUM SUM 5,
        ERIC PROGRAM BY GRAHAM FLETCHER (ELORET AND NASA ADVANCED
        SUPERCOMPUTING DIVISION, AMES RESEARCH CENTER).
     S,P,D,F,G,L SHELL GENERAL RYS QUADRATURE PROGRAMMED BY
        MICHEL DUPUIS (PACIFIC NORTHWEST NATIONAL LABORATORY).

          --------------------
          2 ELECTRON INTEGRALS
          --------------------

 THE -PK- OPTION IS OFF, THE INTEGRALS ARE NOT IN SUPERMATRIX FORM.
 STORING   15000 INTEGRALS/RECORD ON DISK, USING 12 BYTES/INTEGRAL.
 TWO ELECTRON INTEGRAL EVALUATION REQUIRES   89411 WORDS OF MEMORY.
 II,JST,KST,LST =  1  1  1  1 NREC =         1 INTLOC =    1
 II,JST,KST,LST =  2  1  1  1 NREC =         1 INTLOC =    2
 II,JST,KST,LST =  3  1  1  1 NREC =         1 INTLOC =    7
 II,JST,KST,LST =  4  1  1  1 NREC =         1 INTLOC =   21
 II,JST,KST,LST =  5  1  1  1 NREC =         1 INTLOC =   21
 II,JST,KST,LST =  6  1  1  1 NREC =         1 INTLOC =   81
 II,JST,KST,LST =  7  1  1  1 NREC =         1 INTLOC =   81
 II,JST,KST,LST =  8  1  1  1 NREC =         1 INTLOC =  128
 II,JST,KST,LST =  9  1  1  1 NREC =         1 INTLOC =  219
 II,JST,KST,LST = 10  1  1  1 NREC =         1 INTLOC =  235
 TOTAL NUMBER OF NONZERO TWO-ELECTRON INTEGRALS =                2674
         12 INTEGRAL RECORDS WERE STORED ON DISK FILE  8.
  ...... END OF TWO-ELECTRON INTEGRALS .....
 CPU     0: STEP CPU TIME=     0.01 TOTAL CPU TIME=        0.0 (    0.0 MIN)
 TOTAL WALL CLOCK TIME=        0.1 SECONDS, CPU UTILIZATION IS  50.00%

          --------------------------
                 RHF SCF CALCULATION
          --------------------------

     NUCLEAR ENERGY =         5.4020177527
     MAXIT =   30     NPUNCH=    2
     EXTRAP=T  DAMP=F  SHIFT=F  RSTRCT=F  DIIS=F  DEM=F  SOSCF=T
     DENSITY MATRIX CONV=  1.00E-06
     SOSCF WILL OPTIMIZE      77 ORBITAL ROTATIONS, SOGTOL=   0.250
     MEMORY REQUIRED FOR RHF ITERS=     32828 WORDS.

 ITER EX DEM     TOTAL ENERGY        E CHANGE  DENSITY CHANGE     ORB. GRAD
   1  0  0     -107.6570524084  -107.6570524084   0.262002369   0.000000000
          ---------------START SECOND ORDER SCF---------------
   2  1  0     -107.8331093199    -0.1760569115   0.113552695   0.061152370
   3  2  0     -107.8484422305    -0.0153329106   0.025408144   0.024105690
   4  3  0     -107.8515216743    -0.0030794438   0.002603200   0.001232372
   5  4  0     -107.8515308429    -0.0000091686   0.000858232   0.000353548
   6  5  0     -107.8515312563    -0.0000004134   0.000010484   0.000008574
   7  6  0     -107.8515312568    -0.0000000005   0.000002804   0.000001418
   8  7  0     -107.8515312568    -0.0000000000   0.000000497   0.000000274
   9  8  0     -107.8515312568    -0.0000000000   0.000000047   0.000000026

          -----------------
          DENSITY CONVERGED
          -----------------
     TIME TO FORM FOCK OPERATORS=       0.0 SECONDS (       0.0 SEC/ITER)
     TIME TO SOLVE SCF EQUATIONS=       0.0 SECONDS (       0.0 SEC/ITER)

 FINAL RHF ENERGY IS     -107.8515312568 AFTER   9 ITERATIONS

 LZ VALUE ANALYSIS FOR THE MOS
 ----------------------------------------
 MO     1 (    1) HAS LZ(WEIGHT)= 0.00(100.0%) 
 MO     2 (    2) HAS LZ(WEIGHT)= 0.00(100.0%) 
 MO     3 (    3) HAS LZ(WEIGHT)= 0.00(100.0%) 
 MO     4 (    4) HAS LZ(WEIGHT)= 0.00(100.0%) 
 MO     5 (    5) HAS LZ(WEIGHT)= 0.00(100.0%) 
 MO     6 (    6) HAS LZ(WEIGHT)=-1.00( 50.0%)  1.00( 50.0%) 
 MO     7 (    6) HAS LZ(WEIGHT)=-1.00( 50.0%)  1.00( 50.0%) 
 MO     8 (    7) HAS LZ(WEIGHT)=-1.00( 50.0%)  1.00( 50.0%) 
 MO     9 (    7) HAS LZ(WEIGHT)=-1.00( 50.0%)  1.00( 50.0%) 
 MO    10 (    8) HAS LZ(WEIGHT)= 0.00(100.0%) 
 MO    11 (    9) HAS LZ(WEIGHT)= 0.00(100.0%) 
 MO    12 (   10) HAS LZ(WEIGHT)=-1.00( 50.0%)  1.00( 50.0%) 
 MO    13 (   10) HAS LZ(WEIGHT)=-1.00( 50.0%)  1.00( 50.0%) 
 MO    14 (   11) HAS LZ(WEIGHT)=-1.00( 50.0%)  1.00( 50.0%) 
 MO    15 (   11) HAS LZ(WEIGHT)=-1.00( 50.0%)  1.00( 50.0%) 
 MO    16 (   12) HAS LZ(WEIGHT)= 0.00(100.0%) 
 MO    17 (   13) HAS LZ(WEIGHT)= 0.00(100.0%) 
 MO    18 (   14) HAS LZ(WEIGHT)= 0.00(100.0%) 

          ------------
          EIGENVECTORS
          ------------

                      1          2          3          4          5
                  -15.8149   -15.8149    -1.0261    -1.0225    -0.3084
                     A1         A1         A1         A1         A1  
    1  N  1  S    0.706968   0.706970  -0.173318   0.173446   0.001600
    2  N  1  S   -0.000092  -0.000087   0.408907  -0.410598  -0.008746
    3  N  1  S    0.000897   0.000877   0.359680  -0.358013   0.003610
    4  N  1  X    0.000000   0.000000   0.000000   0.000000   0.000000
    5  N  1  Y    0.000000   0.000000   0.000000   0.000000   0.000000
    6  N  1  Z    0.000057   0.000032   0.002498   0.004283   0.498840
    7  N  1  X    0.000000   0.000000   0.000000   0.000000   0.000000
    8  N  1  Y    0.000000   0.000000   0.000000   0.000000   0.000000
    9  N  1  Z   -0.000011  -0.000028   0.002556   0.002922   0.301694
   10  N  2  S    0.706968  -0.706970  -0.173318  -0.173446   0.001600
   11  N  2  S   -0.000092   0.000087   0.408907   0.410598  -0.008746
   12  N  2  S    0.000897  -0.000877   0.359680   0.358013   0.003610
   13  N  2  X    0.000000   0.000000   0.000000   0.000000   0.000000
   14  N  2  Y    0.000000   0.000000   0.000000   0.000000   0.000000
   15  N  2  Z   -0.000057   0.000032  -0.002498   0.004283  -0.498840
   16  N  2  X    0.000000   0.000000   0.000000   0.000000   0.000000
   17  N  2  Y    0.000000   0.000000   0.000000   0.000000   0.000000
   18  N  2  Z    0.000011  -0.000028  -0.002556   0.002922  -0.301694

                      6          7          8          9         10
                   -0.3054    -0.3054    -0.1963    -0.1963    -0.1912
                     B2         B1         B2         B1         A1  
    1  N  1  S    0.000000   0.000000   0.000000   0.000000  -0.001927
    2  N  1  S    0.000000   0.000000   0.000000   0.000000   0.007478
    3  N  1  S    0.000000   0.000000   0.000000   0.000000  -0.000267
    4  N  1  X    0.000000   0.504038   0.000000  -0.504089   0.000000
    5  N  1  Y    0.504038   0.000000  -0.504089   0.000000   0.000000
    6  N  1  Z    0.000000   0.000000   0.000000   0.000000   0.506471
    7  N  1  X    0.000000   0.296762   0.000000  -0.296883   0.000000
    8  N  1  Y    0.296762   0.000000  -0.296883   0.000000   0.000000
    9  N  1  Z    0.000000   0.000000   0.000000   0.000000   0.295103
   10  N  2  S    0.000000   0.000000   0.000000   0.000000   0.001927
   11  N  2  S    0.000000   0.000000   0.000000   0.000000  -0.007478
   12  N  2  S    0.000000   0.000000   0.000000   0.000000   0.000267
   13  N  2  X    0.000000   0.504038   0.000000   0.504089   0.000000
   14  N  2  Y    0.504038   0.000000   0.504089   0.000000   0.000000
   15  N  2  Z    0.000000   0.000000   0.000000   0.000000   0.506471
   16  N  2  X    0.000000   0.296762   0.000000   0.296883   0.000000
   17  N  2  Y    0.296762   0.000000   0.296883   0.000000   0.000000
   18  N  2  Z    0.000000   0.000000   0.000000   0.000000   0.295103

                     11         12         13         14         15
                    0.6262     0.6422     0.6422     0.6458     0.6458
                     A1         B2         B1         B2         B1  
    1  N  1  S   -0.002230   0.000000   0.000000   0.000000   0.000000
    2  N  1  S    0.023451   0.000000   0.000000   0.000000   0.000000
    3  N  1  S   -0.021781   0.000000   0.000000   0.000000   0.000000
    4  N  1  X    0.000000   0.000000  -0.662064   0.000000   0.662451
    5  N  1  Y    0.000000  -0.662064   0.000000   0.662451   0.000000
    6  N  1  Z    0.663532   0.000000   0.000000   0.000000   0.000000
    7  N  1  X    0.000000   0.000000   0.776883   0.000000  -0.778188
    8  N  1  Y    0.000000   0.776883   0.000000  -0.778188   0.000000
    9  N  1  Z   -0.767038   0.000000   0.000000   0.000000   0.000000
   10  N  2  S   -0.002230   0.000000   0.000000   0.000000   0.000000
   11  N  2  S    0.023451   0.000000   0.000000   0.000000   0.000000
   12  N  2  S   -0.021781   0.000000   0.000000   0.000000   0.000000
   13  N  2  X    0.000000   0.000000  -0.662064   0.000000  -0.662451
   14  N  2  Y    0.000000  -0.662064   0.000000  -0.662451   0.000000
   15  N  2  Z   -0.663532   0.000000   0.000000   0.000000   0.000000
   16  N  2  X    0.000000   0.000000   0.776883   0.000000   0.778188
   17  N  2  Y    0.000000   0.776883   0.000000   0.778188   0.000000
   18  N  2  Z    0.767038   0.000000   0.000000   0.000000   0.000000

                     16         17         18
                    0.6639     0.9058     0.9094
                     A1         A1         A1  
    1  N  1  S   -0.002083  -0.091224   0.090966
    2  N  1  S    0.023259   1.110044  -1.109751
    3  N  1  S   -0.022006  -1.103475   1.104521
    4  N  1  X    0.000000   0.000000   0.000000
    5  N  1  Y    0.000000   0.000000   0.000000
    6  N  1  Z   -0.662934  -0.012274  -0.013381
    7  N  1  X    0.000000   0.000000   0.000000
    8  N  1  Y    0.000000   0.000000   0.000000
    9  N  1  Z    0.786499   0.020053   0.019901
   10  N  2  S    0.002083  -0.091224  -0.090966
   11  N  2  S   -0.023259   1.110044   1.109751
   12  N  2  S    0.022006  -1.103475  -1.104521
   13  N  2  X    0.000000   0.000000   0.000000
   14  N  2  Y    0.000000   0.000000   0.000000
   15  N  2  Z   -0.662934   0.012274  -0.013381
   16  N  2  X    0.000000   0.000000   0.000000
   17  N  2  Y    0.000000   0.000000   0.000000
   18  N  2  Z    0.786499  -0.020053   0.019901
 ...... END OF RHF CALCULATION ......
 CPU     0: STEP CPU TIME=     0.00 TOTAL CPU TIME=        0.0 (    0.0 MIN)
 TOTAL WALL CLOCK TIME=        0.1 SECONDS, CPU UTILIZATION IS  42.86%

     ----------------------------------------------------------------
     PROPERTY VALUES FOR THE RHF   SELF-CONSISTENT FIELD WAVEFUNCTION
     ----------------------------------------------------------------

          -----------------
          ENERGY COMPONENTS
          -----------------

         WAVEFUNCTION NORMALIZATION =       1.0000000000

                ONE ELECTRON ENERGY =    -157.3119923955
                TWO ELECTRON ENERGY =      44.0584433860
           NUCLEAR REPULSION ENERGY =       5.4020177527
                                      ------------------
                       TOTAL ENERGY =    -107.8515312568

 ELECTRON-ELECTRON POTENTIAL ENERGY =      44.0584433860
  NUCLEUS-ELECTRON POTENTIAL ENERGY =    -264.8593807836
   NUCLEUS-NUCLEUS POTENTIAL ENERGY =       5.4020177527
                                      ------------------
             TOTAL POTENTIAL ENERGY =    -215.3989196449
               TOTAL KINETIC ENERGY =     107.5473883881
                 VIRIAL RATIO (V/T) =       2.0028279893

  ...... PI ENERGY ANALYSIS ......

 ENERGY ANALYSIS:
            FOCK ENERGY=    -69.1951051888
          BARE H ENERGY=   -157.3119923955
     ELECTRONIC ENERGY =   -113.2535487921
         KINETIC ENERGY=    107.5473883881
          N-N REPULSION=      5.4020177527
           TOTAL ENERGY=   -107.8515310395
        SIGMA PART(1+2)=   -101.9717597612
               (K,V1,2)=    101.1006594004   -237.0706142378     33.9981950762
           PI PART(1+2)=    -11.2817890309
               (K,V1,2)=      6.4467289877    -27.7887665458     10.0602485272
  SIGMA SKELETON, ERROR=    -96.5697420085      0.0000000000
             MIXED PART= 0.00000E+00 0.00000E+00 0.00000E+00 0.00000E+00
 ...... END OF PI ENERGY ANALYSIS ......

          ---------------------------------------
          MULLIKEN AND LOWDIN POPULATION ANALYSES
          ---------------------------------------

               ----- POPULATIONS IN EACH AO -----
                             MULLIKEN      LOWDIN
              1  N  1  S      2.00012     1.99713
              2  N  1  S      1.06319     1.03386
              3  N  1  S      0.93664     0.96895
              4  N  1  X      0.66589     0.64090
              5  N  1  Y      0.66589     0.64090
              6  N  1  Z      0.65658     0.63241
              7  N  1  X      0.33411     0.35910
              8  N  1  Y      0.33411     0.35910
              9  N  1  Z      0.34347     0.36764
             10  N  2  S      2.00012     1.99713
             11  N  2  S      1.06319     1.03386
             12  N  2  S      0.93664     0.96895
             13  N  2  X      0.66589     0.64090
             14  N  2  Y      0.66589     0.64090
             15  N  2  Z      0.65658     0.63241
             16  N  2  X      0.33411     0.35910
             17  N  2  Y      0.33411     0.35910
             18  N  2  Z      0.34347     0.36764

          ----- MULLIKEN ATOMIC OVERLAP POPULATIONS -----
          (OFF-DIAGONAL ELEMENTS NEED TO BE MULTIPLIED BY 2)

             1           2

    1    6.9968607
    2    0.0031393   6.9968607

          TOTAL MULLIKEN AND LOWDIN ATOMIC POPULATIONS
       ATOM         MULL.POP.    CHARGE          LOW.POP.     CHARGE
    1 N             7.000000   -0.000000         7.000000   -0.000000
    2 N             7.000000    0.000000         7.000000    0.000000

          ---------------------
          ELECTROSTATIC MOMENTS
          ---------------------

 POINT   1           X           Y           Z (BOHR)    CHARGE
                 0.000000    0.000000    4.535342        0.00 (A.U.)
         DX          DY          DZ         /D/  (DEBYE)
     0.000000    0.000000    0.000000    0.000000
 ...... END OF PROPERTY EVALUATION ......
 CPU     0: STEP CPU TIME=     0.01 TOTAL CPU TIME=        0.0 (    0.0 MIN)
 TOTAL WALL CLOCK TIME=        0.1 SECONDS, CPU UTILIZATION IS  36.36%

 DETERMINANT CI OPTIONS   NRNFG   NPFLG
 INTEGRAL TRANSFORMATION    1       0
 DIAGONALIZE HAMILTONIAN    1       0
 FORM 1E- DENSITY MATRIX    1       0
 FORM 2E- DENSITY MATRIX    0       0

     --------------------------------------------------
          AMES LABORATORY DETERMINANTAL FULL CI
     PROGRAM WRITTEN BY JOE IVANIC AND KLAUS RUEDENBERG
     --------------------------------------------------

 THE POINT GROUP                  =   C2V     
 THE STATE SYMMETRY               =   A1      
 NUMBER OF CORE ORBITALS          =    2
 NUMBER OF ACTIVE ORBITALS        =   16
 NUMBER OF ALPHA ELECTRONS        =    7 (   5 ACTIVE)
 NUMBER OF BETA ELECTRONS         =    7 (   5 ACTIVE)
 NUMBER OF OCCUPIED ORBITALS      =   18
 NUMBER OF CI STATES REQUESTED    =    1
 NUMBER OF CI STARTING VECTORS    =    6
 MAX. NO. OF CI EXPANSION VECTORS =   12
 SIZE OF INITIAL CI GUESS MATRIX  =  300
 MAX. NO. OF CI ITERS/STATE       =  100
 CI DIAGONALIZATION CRITERION     = 1.00E-06
 CI PROPERTIES WILL BE FOUND FOR ROOT NUMBER   1
 1E- DENSITY MATRIX OPTIONS ARE 1

 CORRELATION ENERGY ANALYSIS      =    F

 SYMMETRIES FOR THE   2 CORE,  16 ACTIVE ARE

     CORE= A1    A1  

   ACTIVE= A1    A1    A1    B2    B1    B2    B1    A1    A1    B2  
           B1    B2    B1    A1    A1    A1  

     --------------------------------------------
     PARTIAL TWO ELECTRON INTEGRAL TRANSFORMATION
     --------------------------------------------

 NUMBER OF CORE MOLECULAR ORBITALS     =    2
 NUMBER OF OCCUPIED MOLECULAR ORBITALS =   18
 TOTAL NUMBER OF MOLECULAR ORBITALS    =   18
 TOTAL NUMBER OF ATOMIC ORBITALS       =   18
 THRESHOLD FOR KEEPING TRANSFORMED 2E- INTEGRALS = 1.000E-09

 -------------------------------     ------------------------------
 DISTRIBUTED DATA TRANSFORMATION     PROGRAM WRITTEN BY G. FLETCHER
 -------------------------------     ------------------------------

 THE DISTRIBUTED MEMORY REQUIRED FOR THIS STEP IS MEMDDI=         1 MWORDS
 CREATING DISTRIBUTED STORAGE FOR [OCC OCC|OCC OCC] INTEGRALS
 DDI: Creating Array [0] - 171 x 171 = 29241 words.
 CREATING WORKSPACE OF SIZE VVOO
 DDI: Creating Array [1] - 171 x 171 = 29241 words.
 FOR   12 PROCESSORS, THE REPLICATED MEMORY NEEDED IS       58507 WORDS.

      DIRECT 4-INDEX TRANSFORMATION 
      SCHWARZ INEQUALITY TEST SKIPPED          0 INTEGRAL BLOCKS
 ----- FROZEN CORE ENERGY =       -92.1100290258
 ... END OF INTEGRAL TRANSFORMATION ...
 CPU     0: STEP CPU TIME=     0.01 TOTAL CPU TIME=        0.0 (    0.0 MIN)
 TOTAL WALL CLOCK TIME=        0.2 SECONDS, CPU UTILIZATION IS  31.25%

     --------------------------------------------------
          AMES LABORATORY DETERMINANTAL FULL CI
     PROGRAM WRITTEN BY JOE IVANIC AND KLAUS RUEDENBERG
     --------------------------------------------------

 THE NUMBER OF DETERMINANTS HAVING SPACE SYMMETRY A1 
 IN POINT GROUP C2V  WITH SZ=  0.0 IS        4777056
 THE DETERMINANT FULL CI REQUIRES       119865995 WORDS
 INITIAL CI VECTOR GUESS TIME  :          2.0
 INITIAL FULL CI ITERATION TIME:          5.6

 ITERATION      ENERGY           GRADIENT
     0     -108.7399256506     0.46138686
     1     -108.8420161292     0.18805564
     2     -108.8546956730     0.07130989
     3     -108.8563215203     0.03118969
     4     -108.8566298728     0.01560303
     5     -108.8567043735     0.00650375
     6     -108.8567160925     0.00231020
     7     -108.8567174492     0.00133550
     8     -108.8567178679     0.00106403
     9     -108.8567184362     0.00072894
    10     -108.8567186061     0.00044051
    11     -108.8567186586     0.00027195
    12     -108.8567186758     0.00015292
    13     -108.8567186797     0.00009049
    14     -108.8567186819     0.00005636
    15     -108.8567186828     0.00004034
    16     -108.8567186832     0.00002678
    17     -108.8567186835     0.00001934
    18     -108.8567186836     0.00001689
    19     -108.8567186837     0.00001123
    20     -108.8567186837     0.00000822
    21     -108.8567186837     0.00000644
    22     -108.8567186838     0.00000452
    23     -108.8567186838     0.00000232
    24     -108.8567186838     0.00000168
    25     -108.8567186838     0.00000128
    26     -108.8567186838     0.00000131
    27     -108.8567186838     0.00000137
    28     -108.8567186838     0.00000137
    29     -108.8567186838     0.00000193
    30     -108.8567186838     0.00000275
    31     -108.8567186838     0.00000260
    32     -108.8567186838     0.00000290
    33     -108.8567186838     0.00000543
    34     -108.8567186838     0.00000855
    35     -108.8567186839     0.00001883
    36     -108.8567186841     0.00002496
    37     -108.8567186843     0.00003644
    38     -108.8567186855     0.00006413
    39     -108.8567186886     0.00013069
    40     -108.8567187226     0.00052475
    41     -108.8567196379     0.00167987
    42     -108.8567203074     0.00134141
    43     -108.8567206390     0.00088971
    44     -108.8567208743     0.00060751
    45     -108.8567210531     0.00057833
    46     -108.8567211344     0.00037835
    47     -108.8567211752     0.00022401
    48     -108.8567211858     0.00014766
    49     -108.8567211905     0.00010581
    50     -108.8567211939     0.00006281
    51     -108.8567211950     0.00004591
    52     -108.8567211955     0.00002288
    53     -108.8567211957     0.00001845
    54     -108.8567211957     0.00001586
    55     -108.8567211958     0.00001031
    56     -108.8567211958     0.00000691
    57     -108.8567211958     0.00000654
    58     -108.8567211959     0.00000426
    59     -108.8567211959     0.00000260
    60     -108.8567211959     0.00000180
    61     -108.8567211959     0.00000127
    62     -108.8567211959     0.00000075

 CONVERGED STATE    1 ENERGY=     -108.8567211959 IN   62 ITERS

 ALL STATES CONVERGED.

 CI EIGENVECTORS WILL BE LABELED IN GROUP=C2V     
 PRINTING CI COEFFICIENTS LARGER THAN  0.050000

 STATE   1  ENERGY=      -108.8567211959  S=  0.00  SZ=  0.00  SPACE SYM=A1  

      ALPHA       |      BETA        | COEFFICIENT
------------------|------------------|------------
 1111100000000000 | 1111100000000000 |   0.2411038
 1111001000000000 | 1111001000000000 |  -0.2408643
 1110110000000000 | 1110110000000000 |  -0.2408643
 1110011000000000 | 1110011000000000 |   0.2406251
 1101100100000000 | 1101100100000000 |  -0.2391009
 1100110100000000 | 1100110100000000 |   0.2388651
 1101001100000000 | 1101001100000000 |   0.2388651
 1100011100000000 | 1100011100000000 |  -0.2386297
 1110101000000000 | 1111010000000000 |   0.1605757
 1111010000000000 | 1110101000000000 |   0.1605757
 1110100100000000 | 1101110000000000 |  -0.1599803
 1101110000000000 | 1110100100000000 |  -0.1599803
 1101101000000000 | 1111000100000000 |   0.1599803
 1111000100000000 | 1101101000000000 |   0.1599803
 1110001100000000 | 1101011000000000 |  -0.1598220
 1101011000000000 | 1110001100000000 |  -0.1598220
 1100111000000000 | 1110010100000000 |   0.1598220
 1110010100000000 | 1100111000000000 |   0.1598220
 1100101100000000 | 1101010100000000 |  -0.1592430
 1101010100000000 | 1100101100000000 |  -0.1592430
 1110110000000000 | 1111001000000000 |   0.0802881
 1111001000000000 | 1110110000000000 |   0.0802881
 1111100000000000 | 1110011000000000 |   0.0802878
 1110011000000000 | 1111100000000000 |   0.0802878
 1111001000000000 | 1101100100000000 |   0.0799916
 1101100100000000 | 1111001000000000 |   0.0799916
 1101100100000000 | 1110110000000000 |  -0.0799916
 1110110000000000 | 1101100100000000 |  -0.0799916
 1111100000000000 | 1101001100000000 |  -0.0799888
 1101001100000000 | 1111100000000000 |  -0.0799888
 1100110100000000 | 1111100000000000 |   0.0799888
 1111100000000000 | 1100110100000000 |   0.0799888
 1110011000000000 | 1100110100000000 |   0.0799124
 1100110100000000 | 1110011000000000 |   0.0799124
 1110011000000000 | 1101001100000000 |  -0.0799124
 1101001100000000 | 1110011000000000 |  -0.0799124
 1110110000000000 | 1100011100000000 |  -0.0799097
 1100011100000000 | 1110110000000000 |  -0.0799097
 1111001000000000 | 1100011100000000 |   0.0799097
 1100011100000000 | 1111001000000000 |   0.0799097
 1101001100000000 | 1100110100000000 |  -0.0796217
 1100110100000000 | 1101001100000000 |  -0.0796217
 1101100100000000 | 1100011100000000 |  -0.0796214
 1100011100000000 | 1101100100000000 |  -0.0796214
 ..... DONE WITH DETERMINANT CI COMPUTATION .....
 CPU     0: STEP CPU TIME=   157.71 TOTAL CPU TIME=      157.8 (    2.6 MIN)
 TOTAL WALL CLOCK TIME=      201.0 SECONDS, CPU UTILIZATION IS  78.49%

     ---------------------------
     ONE PARTICLE DENSITY MATRIX
     ---------------------------

 DENSITY MATRIX WILL BE SAVED FOR   1-TH STATE WITH S= 0.00

 CI EIGENSTATE   1 TOTAL ENERGY =     -108.8567211959

          NATURAL ORBITALS IN ATOMIC ORBITAL BASIS
          ----------------------------------------

                      1          2          3          4          5
                    2.0000     2.0000     1.9850     1.9850     1.0021
                     A1         A1         A1         A1         A1  
    1  N  1  S    0.706968   0.706970  -0.171047  -0.171059   0.000064
    2  N  1  S   -0.000092  -0.000087   0.381742   0.381967  -0.000614
    3  N  1  S    0.000897   0.000877   0.386473   0.386288   0.000277
    4  N  1  X    0.000000   0.000000   0.000000   0.000000   0.000000
    5  N  1  Y    0.000000   0.000000   0.000000   0.000000   0.000000
    6  N  1  Z    0.000057   0.000032  -0.000269   0.000263   0.558403
    7  N  1  X    0.000000   0.000000   0.000000   0.000000   0.000000
    8  N  1  Y    0.000000   0.000000   0.000000   0.000000   0.000000
    9  N  1  Z   -0.000011  -0.000028   0.000413  -0.000409   0.229057
   10  N  2  S    0.706968  -0.706970  -0.171047   0.171059   0.000064
   11  N  2  S   -0.000092   0.000087   0.381742  -0.381967  -0.000614
   12  N  2  S    0.000897  -0.000877   0.386473  -0.386288   0.000277
   13  N  2  X    0.000000   0.000000   0.000000   0.000000   0.000000
   14  N  2  Y    0.000000   0.000000   0.000000   0.000000   0.000000
   15  N  2  Z   -0.000057   0.000032   0.000269   0.000263  -0.558403
   16  N  2  X    0.000000   0.000000   0.000000   0.000000   0.000000
   17  N  2  Y    0.000000   0.000000   0.000000   0.000000   0.000000
   18  N  2  Z    0.000011  -0.000028  -0.000413  -0.000409  -0.229057

                      6          7          8          9         10
                    0.9961     0.9961     0.9949     0.9949     0.9889
                     B2         B1         B1         B2         A1  
    1  N  1  S    0.000000   0.000000   0.000000   0.000000  -0.000117
    2  N  1  S    0.000000   0.000000   0.000000   0.000000   0.000587
    3  N  1  S    0.000000   0.000000   0.000000   0.000000  -0.000255
    4  N  1  X    0.000000   0.559840  -0.560159   0.000000   0.000000
    5  N  1  Y    0.559840   0.000000   0.000000  -0.560159   0.000000
    6  N  1  Z    0.000000   0.000000   0.000000   0.000000   0.561560
    7  N  1  X    0.000000   0.227900  -0.227602   0.000000   0.000000
    8  N  1  Y    0.227900   0.000000   0.000000  -0.227602   0.000000
    9  N  1  Z    0.000000   0.000000   0.000000   0.000000   0.226471
   10  N  2  S    0.000000   0.000000   0.000000   0.000000   0.000117
   11  N  2  S    0.000000   0.000000   0.000000   0.000000  -0.000587
   12  N  2  S    0.000000   0.000000   0.000000   0.000000   0.000255
   13  N  2  X    0.000000   0.559840   0.560159   0.000000   0.000000
   14  N  2  Y    0.559840   0.000000   0.000000   0.560159   0.000000
   15  N  2  Z    0.000000   0.000000   0.000000   0.000000   0.561560
   16  N  2  X    0.000000   0.227900   0.227602   0.000000   0.000000
   17  N  2  Y    0.227900   0.000000   0.000000   0.227602   0.000000
   18  N  2  Z    0.000000   0.000000   0.000000   0.000000   0.226471

                     11         12         13         14         15
                    0.0108     0.0108     0.0060     0.0059     0.0059
                     A1         A1         A1         B2         B1  
    1  N  1  S   -0.095447   0.095414   0.001213   0.000000   0.000000
    2  N  1  S    1.119823  -1.120081  -0.017259   0.000000   0.000000
    3  N  1  S   -1.094451   1.095044   0.018174   0.000000   0.000000
    4  N  1  X    0.000000   0.000000   0.000000   0.000000  -0.615598
    5  N  1  Y    0.000000   0.000000   0.000000  -0.615598   0.000000
    6  N  1  Z    0.008611   0.007855   0.614317   0.000000   0.000000
    7  N  1  X    0.000000   0.000000   0.000000   0.000000   0.799798
    8  N  1  Y    0.000000   0.000000   0.000000   0.799798   0.000000
    9  N  1  Z   -0.009828  -0.009040  -0.791966   0.000000   0.000000
   10  N  2  S   -0.095447  -0.095414   0.001213   0.000000   0.000000
   11  N  2  S    1.119823   1.120081  -0.017259   0.000000   0.000000
   12  N  2  S   -1.094451  -1.095044   0.018174   0.000000   0.000000
   13  N  2  X    0.000000   0.000000   0.000000   0.000000  -0.615598
   14  N  2  Y    0.000000   0.000000   0.000000  -0.615598   0.000000
   15  N  2  Z   -0.008611   0.007855  -0.614317   0.000000   0.000000
   16  N  2  X    0.000000   0.000000   0.000000   0.000000   0.799798
   17  N  2  Y    0.000000   0.000000   0.000000   0.799798   0.000000
   18  N  2  Z    0.009828  -0.009040   0.791966   0.000000   0.000000

                     16         17         18
                    0.0059     0.0059     0.0057
                     B2         B1         A1  
    1  N  1  S    0.000000   0.000000   0.001148
    2  N  1  S    0.000000   0.000000  -0.015927
    3  N  1  S    0.000000   0.000000   0.016887
    4  N  1  X    0.000000   0.615767   0.000000
    5  N  1  Y    0.615767   0.000000   0.000000
    6  N  1  Z    0.000000   0.000000  -0.617073
    7  N  1  X    0.000000  -0.801195   0.000000
    8  N  1  Y   -0.801195   0.000000   0.000000
    9  N  1  Z    0.000000   0.000000   0.809135
   10  N  2  S    0.000000   0.000000  -0.001148
   11  N  2  S    0.000000   0.000000   0.015927
   12  N  2  S    0.000000   0.000000  -0.016887
   13  N  2  X    0.000000  -0.615767   0.000000
   14  N  2  Y   -0.615767   0.000000   0.000000
   15  N  2  Z    0.000000   0.000000  -0.617073
   16  N  2  X    0.000000   0.801195   0.000000
   17  N  2  Y    0.801195   0.000000   0.000000
   18  N  2  Z    0.000000   0.000000   0.809135
 ..... DONE WITH ONE PARTICLE DENSITY MATRIX .....
 CPU     0: STEP CPU TIME=     1.02 TOTAL CPU TIME=      158.8 (    2.6 MIN)
 TOTAL WALL CLOCK TIME=      202.2 SECONDS, CPU UTILIZATION IS  78.51%

     --------------------------------------------------------
     ALDET CI PROPERTIES...FOR THE WAVEFUNCTION OF STATE    1
               USING THE EXPECTATION VALUE DENSITY
     --------------------------------------------------------

          -----------------
          ENERGY COMPONENTS
          -----------------

         WAVEFUNCTION NORMALIZATION =       1.0000000000

                ONE ELECTRON ENERGY =    -158.4752346209
                TWO ELECTRON ENERGY =      44.2164956724
           NUCLEAR REPULSION ENERGY =       5.4020177527
                                      ------------------
                       TOTAL ENERGY =    -108.8567211959

 ELECTRON-ELECTRON POTENTIAL ENERGY =      44.2164956724
  NUCLEUS-ELECTRON POTENTIAL ENERGY =    -267.1871874015
   NUCLEUS-NUCLEUS POTENTIAL ENERGY =       5.4020177527
                                      ------------------
             TOTAL POTENTIAL ENERGY =    -217.5686739764
               TOTAL KINETIC ENERGY =     108.7119527806
                 VIRIAL RATIO (V/T) =       2.0013316697

          ---------------------------------------
          MULLIKEN AND LOWDIN POPULATION ANALYSES
          ---------------------------------------

               ----- POPULATIONS IN EACH AO -----
                             MULLIKEN      LOWDIN
              1  N  1  S      2.00011     1.99634
              2  N  1  S      0.98049     0.98290
              3  N  1  S      1.01518     1.01655
              4  N  1  X      0.75971     0.72076
              5  N  1  Y      0.75971     0.72076
              6  N  1  Z      0.75966     0.72071
              7  N  1  X      0.24169     0.28064
              8  N  1  Y      0.24169     0.28064
              9  N  1  Z      0.24175     0.28070
             10  N  2  S      2.00011     1.99634
             11  N  2  S      0.98049     0.98290
             12  N  2  S      1.01518     1.01655
             13  N  2  X      0.75971     0.72076
             14  N  2  Y      0.75971     0.72076
             15  N  2  Z      0.75966     0.72071
             16  N  2  X      0.24169     0.28064
             17  N  2  Y      0.24169     0.28064
             18  N  2  Z      0.24175     0.28070

          ----- MULLIKEN ATOMIC OVERLAP POPULATIONS -----
          (OFF-DIAGONAL ELEMENTS NEED TO BE MULTIPLIED BY 2)

             1           2

    1    6.9999687
    2    0.0000313   6.9999687

          TOTAL MULLIKEN AND LOWDIN ATOMIC POPULATIONS
       ATOM         MULL.POP.    CHARGE          LOW.POP.     CHARGE
    1 N             7.000000    0.000000         7.000000    0.000000
    2 N             7.000000    0.000000         7.000000    0.000000

          ---------------------
          ELECTROSTATIC MOMENTS
          ---------------------

 POINT   1           X           Y           Z (BOHR)    CHARGE
                 0.000000    0.000000    4.535342        0.00 (A.U.)
         DX          DY          DZ         /D/  (DEBYE)
     0.000000    0.000000   -0.000000    0.000000
 ...... END OF PROPERTY EVALUATION ......
 CPU     0: STEP CPU TIME=     0.00 TOTAL CPU TIME=      158.8 (    2.6 MIN)
 TOTAL WALL CLOCK TIME=      202.7 SECONDS, CPU UTILIZATION IS  78.32%
             119866895  WORDS OF DYNAMIC MEMORY USED
 EXECUTION OF GAMESS TERMINATED NORMALLY Thu Jan 17 19:22:17 2019
 DDI: 305760 bytes (0.3 MB / 0 MWords) used by master data server.

 ----------------------------------------
 CPU timing information for all processes
 ========================================
 0: 149.140 + 9.788 = 158.928
 1: 148.152 + 13.516 = 161.668
 2: 149.152 + 11.860 = 161.12
 3: 148.460 + 11.776 = 160.236
 4: 147.696 + 11.380 = 159.76
 5: 149.120 + 10.08 = 159.128
 6: 147.132 + 10.756 = 157.888
 7: 148.456 + 10.964 = 159.420
 8: 148.448 + 8.944 = 157.392
 9: 147.692 + 11.560 = 159.252
 10: 149.192 + 9.884 = 159.76
 11: 149.88 + 9.200 = 158.288
 12: 0.596 + 6.52 = 6.648
 13: 0.04 + 0.00 = 0.04
 14: 0.04 + 0.00 = 0.04
 15: 0.04 + 0.00 = 0.04
 16: 0.00 + 0.04 = 0.04
 17: 0.00 + 0.04 = 0.04
 18: 0.00 + 0.08 = 0.08
 19: 0.00 + 0.04 = 0.04
 20: 0.08 + 0.00 = 0.08
 21: 0.04 + 0.04 = 0.08
 22: 0.08 + 0.00 = 0.08
 23: 0.00 + 0.04 = 0.04
 ----------------------------------------
 ddikick.x: exited gracefully.
unset echo
----- accounting info -----
Files used on the master node localhost were:
-rw-rw-r-- 1 maho maho    13429 Jan 17 19:22 ./N2.SV/4.8/N2.SV.fullCI.4.8.gamess.dat
-rw------- 1 maho maho     1813 Jan 17 19:18 ./N2.SV/4.8/N2.SV.fullCI.4.8.gamess.F05
-rw-rw-r-- 1 maho maho   180016 Jan 17 19:18 ./N2.SV/4.8/N2.SV.fullCI.4.8.gamess.F08
-rw-rw-r-- 1 maho maho     1376 Jan 17 19:18 ./N2.SV/4.8/N2.SV.fullCI.4.8.gamess.F09
-rw-rw-r-- 1 maho maho  1865040 Jan 17 19:22 ./N2.SV/4.8/N2.SV.fullCI.4.8.gamess.F10
-rw-rw-r-- 1 maho maho 38216480 Jan 17 19:22 ./N2.SV/4.8/N2.SV.fullCI.4.8.gamess.F12
-rw------- 1 maho maho     1813 Jan 17 19:18 ./N2.SV/4.8/N2.SV.fullCI.4.8.gamess.inp
-rw-rw-r-- 1 maho maho    49820 Jan 17 19:22 ./N2.SV/4.8/N2.SV.fullCI.4.8.gamess.log
ls: No match.
ls: No match.
ls: No match.
Thu Jan 17 19:22:20 JST 2019
0.0u 0.0s 3:26.17 0.0% 0+0k 0+8io 0pf+0w
