----- GAMESS execution script 'rungms' -----
This job is running on host bach.ad64.riken.go.jp
under operating system Darwin at 2019年 1月17日 木曜日 17時52分57秒 JST
Available scratch disk space (Kbyte units) at beginning of the job is
Filesystem   1024-blocks       Used Available Capacity iused      ifree %iused  Mounted on
/dev/disk2s2  1953178672 1144754884 808423788    59%  984644 4293982635    0%   /Volumes/Users
GAMESS temporary binary files will be written to ./
GAMESS supplementary output files will be written to ./
Copying input file LiH.631g/4.6/LiH.631g.MP2.4.6.gamess.inp to your run's scratch directory...
cp LiH.631g/4.6/LiH.631g.MP2.4.6.gamess.inp .//LiH.631g/4.6/LiH.631g.MP2.4.6.gamess.F05
unset echo
/Volumes/Users/maho/bin/gamess//ddikick.x /Volumes/Users/maho/bin/gamess//gamess.00.x LiH.631g/4.6/LiH.631g.MP2.4.6.gamess -ddi 1 1 bach.ad64.riken.go.jp -scr ./

 Distributed Data Interface kickoff program.
 Initiating 1 compute processes on 1 nodes to run the following command:
 /Volumes/Users/maho/bin/gamess//gamess.00.x LiH.631g/4.6/LiH.631g.MP2.4.6.gamess 

          ******************************************************
          *         GAMESS VERSION = 18 AUG 2016 (R1)          *
          *             FROM IOWA STATE UNIVERSITY             *
          * M.W.SCHMIDT, K.K.BALDRIDGE, J.A.BOATZ, S.T.ELBERT, *
          *   M.S.GORDON, J.H.JENSEN, S.KOSEKI, N.MATSUNAGA,   *
          *          K.A.NGUYEN, S.J.SU, T.L.WINDUS,           *
          *       TOGETHER WITH M.DUPUIS, J.A.MONTGOMERY       *
          *         J.COMPUT.CHEM.  14, 1347-1363(1993)        *
          **************** 64 BIT APPLE VERSION ****************

  SINCE 1993, STUDENTS AND POSTDOCS WORKING AT IOWA STATE UNIVERSITY
  AND ALSO IN THEIR VARIOUS JOBS AFTER LEAVING ISU HAVE MADE IMPORTANT
  CONTRIBUTIONS TO THE CODE:
     IVANA ADAMOVIC, CHRISTINE AIKENS, YURI ALEXEEV, POOJA ARORA,
     ANDREY ASADCHEV, ROB BELL, PRADIPTA BANDYOPADHYAY, JONATHAN BENTZ,
     BRETT BODE, KURT BRORSEN, CALEB CARLIN, GALINA CHABAN, WEI CHEN,
     CHEOL HO CHOI, PAUL DAY, ALBERT DEFUSCO, NUWAN DESILVA, TIM DUDLEY,
     DMITRI FEDOROV, GRAHAM FLETCHER, MARK FREITAG, KURT GLAESEMANN,
     DAN KEMP, GRANT MERRILL, NORIYUKI MINEZAWA, JONATHAN MULLIN,
     TAKESHI NAGATA, SEAN NEDD, HEATHER NETZLOFF, BOSILJKA NJEGIC, RYAN OLSON,
     MIKE PAK, SPENCER PRUITT, LUKE ROSKOP, JIM SHOEMAKER, LYUDMILA SLIPCHENKO,
     TONY SMITH, SAROM SOK LEANG, JIE SONG, TETSUYA TAKETSUGU, SIMON WEBB,
     PENG XU, SOOHAENG YOO, FEDERICO ZAHARIEV

  ADDITIONAL CODE HAS BEEN PROVIDED BY COLLABORATORS IN OTHER GROUPS:
     IOWA STATE UNIVERSITY:
          JOE IVANIC, AARON WEST, LAIMUTIS BYTAUTAS, KLAUS RUEDENBERG
     UNIVERSITY OF TOKYO: KIMIHIKO HIRAO, TAKAHITO NAKAJIMA,
          TAKAO TSUNEDA, MUNEAKI KAMIYA, SUSUMU YANAGISAWA,
          KIYOSHI YAGI, MAHITO CHIBA, SEIKEN TOKURA, NAOAKI KAWAKAMI
     UNIVERSITY OF AARHUS: FRANK JENSEN
     UNIVERSITY OF IOWA: VISVALDAS KAIRYS, HUI LI
     NATIONAL INST. OF STANDARDS AND TECHNOLOGY: WALT STEVENS, DAVID GARMER
     UNIVERSITY OF PISA: BENEDETTA MENNUCCI, JACOPO TOMASI
     UNIVERSITY OF MEMPHIS: HENRY KURTZ, PRAKASHAN KORAMBATH
     UNIVERSITY OF ALBERTA: TOBY ZENG, MARIUSZ KLOBUKOWSKI
     UNIVERSITY OF NEW ENGLAND: MARK SPACKMAN
     MIE UNIVERSITY: HIROAKI UMEDA
     NAT. INST. OF ADVANCED INDUSTRIAL SCIENCE AND TECHNOLOGY: KAZUO KITAURA
     MICHIGAN STATE UNIVERSITY:
          KAROL KOWALSKI, MARTA WLOCH, JEFFREY GOUR, JESSE LUTZ,
          WEI LI, PIOTR PIECUCH
     UNIVERSITY OF SILESIA: MONIKA MUSIAL, STANISLAW KUCHARSKI
     FACULTES UNIVERSITAIRES NOTRE-DAME DE LA PAIX:
          OLIVIER QUINET, BENOIT CHAMPAGNE
     UNIVERSITY OF CALIFORNIA - SANTA BARBARA: BERNARD KIRTMAN
     INSTITUTE FOR MOLECULAR SCIENCE:
          KAZUYA ISHIMURA, MICHIO KATOUDA, AND SHIGERU NAGASE
     UNIVERSITY OF NOTRE DAME: ANNA POMOGAEVA, DAN CHIPMAN
     KYUSHU UNIVERSITY:
          HARUYUKI NAKANO,
          FENG LONG GU, JACEK KORCHOWIEC, MARCIN MAKOWSKI, AND YURIKO AOKI,
          HIROTOSHI MORI AND EISAKU MIYOSHI
     PENNSYLVANIA STATE UNIVERSITY:
          TZVETELIN IORDANOV, CHET SWALINA, JONATHAN SKONE,
          SHARON HAMMES-SCHIFFER
     WASEDA UNIVERSITY:
          MASATO KOBAYASHI, TOMOKO AKAMA, TSUGUKI TOUMA,
          TAKESHI YOSHIKAWA, YASUHIRO IKABATA, JUNJI SEINO,
          YUYA NAKAJIMA, HIROMI NAKAI
     NANJING UNIVERSITY: SHUHUA LI
     UNIVERSITY OF NEBRASKA:
          PEIFENG SU, DEJUN SI, NANDUN THELLAMUREGE, YALI WANG, HUI LI
     UNIVERSITY OF ZURICH: ROBERTO PEVERATI, KIM BALDRIDGE
     N. COPERNICUS UNIVERSITY AND JACKSON STATE UNIVERSITY:
          MARIA BARYSZ
     UNIVERSITY OF COPENHAGEN: Jimmy Kromann, CASPER STEINMANN
     TOKYO INSTITUTE OF TECHNOLOGY: HIROYA NAKATA
     NAGOYA UNIVERSITY: YOSHIO NISHIMOTO, STEPHAN IRLE
     MOSCOW STATE UNIVERSITY: VLADIMIR MIRONOV

 EXECUTION OF GAMESS BEGUN Thu Jan 17 17:52:57 2019

            ECHO OF THE FIRST FEW INPUT CARDS -
 INPUT CARD> $CONTRL MULT=1 SCFTYP=RHF MPLEVL=2 $END                                        
 INPUT CARD> $MP2 NACORE=0 NBCORE=0 $END                                                    
 INPUT CARD> $BASIS GBASIS=N31 NGAUSS=6 NDFUNC=1 NPFUNC=1 $END                              
 INPUT CARD> $GUESS GUESS=HUCKEL $END                                                       
 INPUT CARD> $DATA                                                                          
 INPUT CARD>LiH...HF...6-31G* basis                                                         
 INPUT CARD>Cnv   2                                                                         
 INPUT CARD>                                                                                
 INPUT CARD>Li    3.0    0.0      0.0     0.0                                               
 INPUT CARD>H     1.0    0.0      0.0     4.6                                               
 INPUT CARD> $END                                                                           
    1000000 WORDS OF MEMORY AVAILABLE

     BASIS OPTIONS
     -------------
     GBASIS=N31          IGAUSS=       6      POLAR=POPN31  
     NDFUNC=       1     NFFUNC=       0     DIFFSP=       F
     NPFUNC=       1      DIFFS=       F     BASNAM=        


     RUN TITLE
     ---------
 LiH...HF...6-31G* basis                                                         

 THE POINT GROUP OF THE MOLECULE IS CNV     
 THE ORDER OF THE PRINCIPAL AXIS IS     2

 ATOM      ATOMIC                      COORDINATES (BOHR)
           CHARGE         X                   Y                   Z
 LI          3.0     0.0000000000        0.0000000000        0.0000000000
 H           1.0     0.0000000000        0.0000000000        8.6927395435

          INTERNUCLEAR DISTANCES (ANGS.)
          ------------------------------

                1 LI         2 H     

   1 LI      0.0000000    4.6000000  
   2 H       4.6000000    0.0000000  

  * ... LESS THAN  3.000


     ATOMIC BASIS SET
     ----------------
 THE CONTRACTED PRIMITIVE FUNCTIONS HAVE BEEN UNNORMALIZED
 THE CONTRACTED BASIS FUNCTIONS ARE NOW NORMALIZED TO UNITY

  SHELL TYPE  PRIMITIVE        EXPONENT          CONTRACTION COEFFICIENT(S)

 LI        

      1   S       1           642.4189150    0.002142607810
      1   S       2            96.7985153    0.016208871501
      1   S       3            22.0911212    0.077315572504
      1   S       4             6.2010702    0.245786052013
      1   S       5             1.9351177    0.470189004025
      1   S       6             0.6367358    0.345470845019

      2   L       7             2.3249184   -0.035091745735    0.008941508043
      2   L       8             0.6324304   -0.191232843103    0.141009464046
      2   L       9             0.0790534    1.083987794916    0.945363695309

      3   L      10             0.0359620    1.000000000000    1.000000000000

      4   D      11             0.2000000    1.000000000000

 H         

      5   S      12            18.7311370    0.033494604338
      5   S      13             2.8253944    0.234726953484
      5   S      14             0.6401217    0.813757326146

      6   S      15             0.1612778    1.000000000000

      7   P      16             1.1000000    1.000000000000

 TOTAL NUMBER OF BASIS SET SHELLS             =    7
 NUMBER OF CARTESIAN GAUSSIAN BASIS FUNCTIONS =   20
 NUMBER OF ELECTRONS                          =    4
 CHARGE OF MOLECULE                           =    0
 SPIN MULTIPLICITY                            =    1
 NUMBER OF OCCUPIED ORBITALS (ALPHA)          =    2
 NUMBER OF OCCUPIED ORBITALS (BETA )          =    2
 TOTAL NUMBER OF ATOMS                        =    2
 THE NUCLEAR REPULSION ENERGY IS        0.3451155973

 THIS MOLECULE IS RECOGNIZED AS BEING LINEAR,
 ORBITAL LZ DEGENERACY TOLERANCE ETOLLZ= 1.00E-06

     $CONTRL OPTIONS
     ---------------
 SCFTYP=RHF          RUNTYP=ENERGY       EXETYP=RUN     
 MPLEVL=       2     CITYP =NONE         CCTYP =NONE         VBTYP =NONE    
 DFTTYP=NONE         TDDFT =NONE    
 MULT  =       1     ICHARG=       0     NZVAR =       0     COORD =UNIQUE  
 PP    =NONE         RELWFN=NONE         LOCAL =NONE         NUMGRD=       F
 ISPHER=      -1     NOSYM =       0     MAXIT =      30     UNITS =ANGS    
 PLTORB=       F     MOLPLT=       F     AIMPAC=       F     FRIEND=        
 NPRINT=       7     IREST =       0     GEOM  =INPUT   
 NORMF =       0     NORMP =       0     ITOL  =      20     ICUT  =       9
 INTTYP=BEST         GRDTYP=BEST         QMTTOL= 1.0E-06

     $SYSTEM OPTIONS
     ---------------
  REPLICATED MEMORY=     1000000 WORDS (ON EVERY NODE).
 DISTRIBUTED MEMDDI=           0 MILLION WORDS IN AGGREGATE,
 MEMDDI DISTRIBUTED OVER   1 PROCESSORS IS           0 WORDS/PROCESSOR.
 TOTAL MEMORY REQUESTED ON EACH PROCESSOR=     1000000 WORDS.
 TIMLIM=      525600.00 MINUTES, OR     365.0 DAYS.
 PARALL= F  BALTYP=  DLB     KDIAG=    0  COREFL= F
 MXSEQ2=     300 MXSEQ3=     150  mem10=         0

          ----------------
          PROPERTIES INPUT
          ----------------

     MOMENTS            FIELD           POTENTIAL          DENSITY
 IEMOM =       1   IEFLD =       0   IEPOT =       0   IEDEN =       0
 WHERE =COMASS     WHERE =NUCLEI     WHERE =NUCLEI     WHERE =NUCLEI  
 OUTPUT=BOTH       OUTPUT=BOTH       OUTPUT=BOTH       OUTPUT=BOTH    
 IEMINT=       0   IEFINT=       0                     IEDINT=       0
                                                       MORB  =       0
          EXTRAPOLATION IN EFFECT
          SOSCF IN EFFECT
 ORBITAL PRINTING OPTION: NPREO=     1    20     2     1

     -------------------------------
     INTEGRAL TRANSFORMATION OPTIONS
     -------------------------------
     NWORD  =            0
     CUTOFF = 1.0E-09     MPTRAN =       0
     DIRTRF =       F     AOINTS =DUP     

          ----------------------
          INTEGRAL INPUT OPTIONS
          ----------------------
 NOPK  =       1 NORDER=       0 SCHWRZ=       F

          -----------------------
          MP2 CONTROL INFORMATION
          -----------------------
          NACORE =        0  NBCORE =        0
          LMOMP2 =        F  AOINTS = DUP     
          METHOD =        2  NWORD  =               0
          MP2PRP =        F  OSPT   = NONE    
          CUTOFF = 1.00E-09  CPHFBS = BASISMO 
          CODE   = IMS     

          NUMBER OF CORE -A-  ORBITALS =     0
          NUMBER OF CORE -B-  ORBITALS =     0
          NUMBER OF OCC. -A-  ORBITALS =     2
          NUMBER OF OCC. -B-  ORBITALS =     2
          NUMBER OF MOLECULAR ORBITALS =    20
          NUMBER OF   BASIS  FUNCTIONS =    20


     ------------------------------------------
     THE POINT GROUP IS CNV, NAXIS= 2, ORDER= 4
     ------------------------------------------

     DIMENSIONS OF THE SYMMETRY SUBSPACES ARE
 A1  =   11     A2  =    1     B1  =    4     B2  =    4

 ..... DONE SETTING UP THE RUN .....
 STEP CPU TIME =     0.00 TOTAL CPU TIME =        0.0 (    0.0 MIN)
 TOTAL WALL CLOCK TIME=        0.0 SECONDS, CPU UTILIZATION IS   0.00%

          ********************
          1 ELECTRON INTEGRALS
          ********************
 ...... END OF ONE-ELECTRON INTEGRALS ......
 STEP CPU TIME =     0.00 TOTAL CPU TIME =        0.0 (    0.0 MIN)
 TOTAL WALL CLOCK TIME=        0.0 SECONDS, CPU UTILIZATION IS   0.00%

          -------------
          GUESS OPTIONS
          -------------
          GUESS =HUCKEL            NORB  =       0          NORDER=       0
          MIX   =       F          PRTMO =       F          PUNMO =       F
          TOLZ  = 1.0E-08          TOLE  = 1.0E-05
          SYMDEN=       F          PURIFY=       F

 INITIAL GUESS ORBITALS GENERATED BY HUCKEL   ROUTINE.
 HUCKEL GUESS REQUIRES      4469 WORDS.

 SYMMETRIES FOR INITIAL GUESS ORBITALS FOLLOW.   BOTH SET(S).
     2 ORBITALS ARE OCCUPIED (    1 CORE ORBITALS).
     2=A1       3=A1       4=A1       5=A1       6=A1       7=A1       8=A1  
     9=A1      10=A1      11=A1      12=A2  
 ...... END OF INITIAL ORBITAL SELECTION ......
 STEP CPU TIME =     0.00 TOTAL CPU TIME =        0.0 (    0.0 MIN)
 TOTAL WALL CLOCK TIME=        0.0 SECONDS, CPU UTILIZATION IS   0.00%

                    ----------------------
                    AO INTEGRAL TECHNOLOGY
                    ----------------------
     S,P,L SHELL ROTATED AXIS INTEGRALS, REPROGRAMMED BY
        KAZUYA ISHIMURA (IMS) AND JOSE SIERRA (SYNSTAR).
     S,P,D,L SHELL ROTATED AXIS INTEGRALS PROGRAMMED BY
        KAZUYA ISHIMURA (INSTITUTE FOR MOLECULAR SCIENCE).
     S,P,D,F,G SHELL TO TOTAL QUARTET ANGULAR MOMENTUM SUM 5,
        ERIC PROGRAM BY GRAHAM FLETCHER (ELORET AND NASA ADVANCED
        SUPERCOMPUTING DIVISION, AMES RESEARCH CENTER).
     S,P,D,F,G,L SHELL GENERAL RYS QUADRATURE PROGRAMMED BY
        MICHEL DUPUIS (PACIFIC NORTHWEST NATIONAL LABORATORY).

          --------------------
          2 ELECTRON INTEGRALS
          --------------------

 THE -PK- OPTION IS OFF, THE INTEGRALS ARE NOT IN SUPERMATRIX FORM.
 STORING   15000 INTEGRALS/RECORD ON DISK, USING 12 BYTES/INTEGRAL.
 TWO ELECTRON INTEGRAL EVALUATION REQUIRES   90424 WORDS OF MEMORY.
 II,JST,KST,LST =  1  1  1  1 NREC =         1 INTLOC =    1
 II,JST,KST,LST =  2  1  1  1 NREC =         1 INTLOC =    2
 II,JST,KST,LST =  3  1  1  1 NREC =         1 INTLOC =   34
 II,JST,KST,LST =  4  1  1  1 NREC =         1 INTLOC =  214
 II,JST,KST,LST =  5  1  1  1 NREC =         1 INTLOC = 1189
 II,JST,KST,LST =  6  1  1  1 NREC =         1 INTLOC = 1788
 II,JST,KST,LST =  7  1  1  1 NREC =         1 INTLOC = 2615
 TOTAL NUMBER OF NONZERO TWO-ELECTRON INTEGRALS =                5011
          1 INTEGRAL RECORDS WERE STORED ON DISK FILE  8.
  ...... END OF TWO-ELECTRON INTEGRALS .....
 STEP CPU TIME =     0.03 TOTAL CPU TIME =        0.0 (    0.0 MIN)
 TOTAL WALL CLOCK TIME=        0.0 SECONDS, CPU UTILIZATION IS 100.00%

          --------------------------
                 RHF SCF CALCULATION
          --------------------------

     NUCLEAR ENERGY =         0.3451155973
     MAXIT =   30     NPUNCH=    2
     EXTRAP=T  DAMP=F  SHIFT=F  RSTRCT=F  DIIS=F  DEM=F  SOSCF=T
     DENSITY MATRIX CONV=  1.00E-06
     SOSCF WILL OPTIMIZE      36 ORBITAL ROTATIONS, SOGTOL=   0.250
     MEMORY REQUIRED FOR RHF ITERS=     33224 WORDS.

 ITER EX DEM     TOTAL ENERGY        E CHANGE  DENSITY CHANGE     ORB. GRAD
   1  0  0       -7.4936222398    -7.4936222398   1.064984702   0.000000000
          ---------------START SECOND ORDER SCF---------------
 SOSCF IS SCALING ROTATION ANGLE MATRIX, SQCDF=    0.108967
   2  1  0       -7.4549938339     0.0386284060   0.774795769   0.058186599
 SOSCF IS SCALING ROTATION ANGLE MATRIX, SQCDF=    0.312912
   3  2  0       -7.5655666276    -0.1105727938   0.681737701   0.095362100
 SOSCF IS SCALING ROTATION ANGLE MATRIX, SQCDF=    0.326740
   4  3  0       -7.7069578826    -0.1413912549   1.343140916   0.109571130
   5  4  0       -7.7546631158    -0.0477052332   0.252304056   0.063521321
   6  5  0       -7.8038322273    -0.0491691115   0.231777155   0.021019134
   7  6  0       -7.8118339669    -0.0080017396   0.222057090   0.009636681
   8  7  0       -7.8175448230    -0.0057108561   0.106808824   0.028278409
   9  8  0       -7.8247469916    -0.0072021686   0.316942357   0.018777769
  10  9  0       -7.8292903713    -0.0045433797   0.133066522   0.029158414
  11 10  0       -7.8333622799    -0.0040719086   0.067409207   0.008099406
  12 11  0       -7.8350430067    -0.0016807268   0.037145413   0.002755798
  13 12  0       -7.8351798626    -0.0001368559   0.011696631   0.001334751
  14 13  0       -7.8352095265    -0.0000296639   0.000834640   0.000102804
  15 14  0       -7.8352097469    -0.0000002204   0.000075948   0.000021757
  16 15  0       -7.8352097484    -0.0000000014   0.000015231   0.000004382
  17 16  0       -7.8352097484    -0.0000000001   0.000001089   0.000000261
  18 17  0       -7.8352097484    -0.0000000000   0.000000236   0.000000056

          -----------------
          DENSITY CONVERGED
          -----------------
     TIME TO FORM FOCK OPERATORS=       0.0 SECONDS (       0.0 SEC/ITER)
     TIME TO SOLVE SCF EQUATIONS=       0.0 SECONDS (       0.0 SEC/ITER)

 FINAL RHF ENERGY IS       -7.8352097484 AFTER  18 ITERATIONS

 LZ VALUE ANALYSIS FOR THE MOS
 ----------------------------------------
 MO     1 (    1) HAS LZ(WEIGHT)= 0.00(100.0%) 
 MO     2 (    2) HAS LZ(WEIGHT)= 0.00(100.0%) 
 MO     3 (    3) HAS LZ(WEIGHT)= 0.00(100.0%) 
 MO     4 (    4) HAS LZ(WEIGHT)=-1.00( 50.0%)  1.00( 50.0%) 
 MO     5 (    4) HAS LZ(WEIGHT)=-1.00( 50.0%)  1.00( 50.0%) 
 MO     6 (    5) HAS LZ(WEIGHT)= 0.00(100.0%) 
 MO     7 (    6) HAS LZ(WEIGHT)= 0.00(100.0%) 
 MO     8 (    7) HAS LZ(WEIGHT)=-1.00( 50.0%)  1.00( 50.0%) 
 MO     9 (    7) HAS LZ(WEIGHT)=-1.00( 50.0%)  1.00( 50.0%) 
 MO    10 (    8) HAS LZ(WEIGHT)= 0.00(100.0%) 
 MO    11 (    9) HAS LZ(WEIGHT)=-2.00( 50.0%)  2.00( 50.0%) 
 MO    12 (    9) HAS LZ(WEIGHT)=-2.00( 50.0%)  2.00( 50.0%) 
 MO    13 (   10) HAS LZ(WEIGHT)=-1.00( 50.0%)  1.00( 50.0%) 
 MO    14 (   10) HAS LZ(WEIGHT)=-1.00( 50.0%)  1.00( 50.0%) 
 MO    15 (   11) HAS LZ(WEIGHT)= 0.00(100.0%) 
 MO    16 (   12) HAS LZ(WEIGHT)= 0.00(100.0%) 
 MO    17 (   13) HAS LZ(WEIGHT)= 0.00(100.0%) 
 MO    18 (   14) HAS LZ(WEIGHT)=-1.00( 50.0%)  1.00( 50.0%) 
 MO    19 (   14) HAS LZ(WEIGHT)=-1.00( 50.0%)  1.00( 50.0%) 
 MO    20 (   15) HAS LZ(WEIGHT)= 0.00(100.0%) 

          ------------
          EIGENVECTORS
          ------------

                      1          2          3          4          5
                   -2.5860    -0.1818    -0.0511     0.0203     0.0203
                     A1         A1         A1         B1         B2  
    1  LI 1  S    0.998767  -0.094600  -0.161541  -0.000000  -0.000000
    2  LI 1  S   -0.012238  -0.074895   0.103541  -0.000000  -0.000000
    3  LI 1  X    0.000000   0.000000  -0.000000   0.241234  -0.000000
    4  LI 1  Y    0.000000   0.000000  -0.000000  -0.000000   0.241234
    5  LI 1  Z   -0.002310  -0.028174  -0.075879  -0.000000  -0.000000
    6  LI 1  S    0.001907   0.495254   0.700980  -0.000000  -0.000000
    7  LI 1  X    0.000000   0.000000  -0.000000   0.795814  -0.000000
    8  LI 1  Y    0.000000   0.000000  -0.000000  -0.000000   0.795814
    9  LI 1  Z    0.001555   0.214060  -0.292873  -0.000000  -0.000000
   10  LI 1 XX    0.008777   0.031380   0.035123  -0.000000  -0.000000
   11  LI 1 YY    0.008777   0.031380   0.035123  -0.000000  -0.000000
   12  LI 1 ZZ    0.008670   0.040937   0.032336  -0.000000  -0.000000
   13  LI 1 XY    0.000000   0.000000  -0.000000  -0.000000  -0.000000
   14  LI 1 XZ    0.000000   0.000000  -0.000000  -0.022859  -0.000000
   15  LI 1 YZ    0.000000   0.000000  -0.000000  -0.000000  -0.022859
   16  H  2  S    0.000048   0.239105  -0.114515  -0.000000  -0.000000
   17  H  2  S   -0.000193   0.613449  -0.302613  -0.000000  -0.000000
   18  H  2  X    0.000000   0.000000  -0.000000   0.000808  -0.000000
   19  H  2  Y    0.000000   0.000000  -0.000000  -0.000000   0.000808
   20  H  2  Z    0.000009  -0.001089  -0.000810  -0.000000  -0.000000

                      6          7          8          9         10
                    0.0473     0.1486     0.1643     0.1643     0.2092
                     A1         A1         B1         B2         A1  
    1  LI 1  S   -0.033963   0.059755  -0.000000  -0.000000   0.060305
    2  LI 1  S    0.463170   2.361841  -0.000000  -0.000000   2.180608
    3  LI 1  X   -0.000000  -0.000000   1.655717  -0.000000   0.000000
    4  LI 1  Y   -0.000000  -0.000000  -0.000000   1.655717   0.000000
    5  LI 1  Z    0.310267  -1.152663  -0.000000  -0.000000   1.209443
    6  LI 1  S   -0.143747  -1.841833  -0.000000  -0.000000  -1.741034
    7  LI 1  X   -0.000000  -0.000000  -1.472784  -0.000000   0.000000
    8  LI 1  Y   -0.000000  -0.000000  -0.000000  -1.472784   0.000000
    9  LI 1  Z    0.650972   0.972590  -0.000000  -0.000000  -1.225540
   10  LI 1 XX   -0.008519  -0.231954  -0.000000  -0.000000  -0.176236
   11  LI 1 YY   -0.008519  -0.231954  -0.000000  -0.000000  -0.176236
   12  LI 1 ZZ   -0.067581  -0.192168  -0.000000  -0.000000  -0.212325
   13  LI 1 XY   -0.000000  -0.000000  -0.000000  -0.000000   0.000000
   14  LI 1 XZ   -0.000000  -0.000000  -0.034367  -0.000000   0.000000
   15  LI 1 YZ   -0.000000  -0.000000  -0.000000  -0.034367   0.000000
   16  H  2  S   -0.101666   0.010161  -0.000000  -0.000000   0.050302
   17  H  2  S   -0.363271  -0.028925  -0.000000  -0.000000   0.300581
   18  H  2  X   -0.000000  -0.000000  -0.000897  -0.000000   0.000000
   19  H  2  Y   -0.000000  -0.000000  -0.000000  -0.000897   0.000000
   20  H  2  Z   -0.002734   0.000799  -0.000000  -0.000000   0.002767

                     11         12         13         14         15
                    0.4970     0.4970     0.5012     0.5012     0.5035
                     A1         A2         B1         B2         A1  
    1  LI 1  S   -0.000000   0.000000  -0.000000  -0.000000  -0.000818
    2  LI 1  S   -0.000000   0.000000  -0.000000  -0.000000   0.028494
    3  LI 1  X   -0.000000   0.000000   0.062471  -0.000000   0.000000
    4  LI 1  Y   -0.000000   0.000000  -0.000000   0.062471   0.000000
    5  LI 1  Z   -0.000000   0.000000  -0.000000  -0.000000   0.071701
    6  LI 1  S   -0.000000   0.000000  -0.000000  -0.000000  -0.007145
    7  LI 1  X   -0.000000   0.000000  -0.032454  -0.000000   0.000000
    8  LI 1  Y   -0.000000   0.000000  -0.000000  -0.032454   0.000000
    9  LI 1  Z   -0.000000   0.000000  -0.000000  -0.000000  -0.031530
   10  LI 1 XX   -0.866025   0.000000  -0.000000  -0.000000  -0.505592
   11  LI 1 YY    0.866025   0.000000  -0.000000  -0.000000  -0.505592
   12  LI 1 ZZ   -0.000000   0.000000  -0.000000  -0.000000   0.991939
   13  LI 1 XY   -0.000000   1.000000  -0.000000  -0.000000   0.000000
   14  LI 1 XZ   -0.000000   0.000000   0.999148  -0.000000   0.000000
   15  LI 1 YZ   -0.000000   0.000000  -0.000000   0.999148   0.000000
   16  H  2  S   -0.000000   0.000000  -0.000000  -0.000000  -0.025203
   17  H  2  S   -0.000000   0.000000  -0.000000  -0.000000  -0.000350
   18  H  2  X   -0.000000   0.000000   0.000179  -0.000000   0.000000
   19  H  2  Y   -0.000000   0.000000  -0.000000   0.000179   0.000000
   20  H  2  Z   -0.000000   0.000000  -0.000000  -0.000000  -0.000741

                     16         17         18         19         20
                    1.1463     1.1925     2.4664     2.4664     2.4705
                     A1         A1         B2         B1         A1  
    1  LI 1  S    0.097167   0.065921  -0.000000  -0.000000  -0.005298
    2  LI 1  S    8.342583   4.544625  -0.000000  -0.000000  -0.200358
    3  LI 1  X    0.000000  -0.000000  -0.000000   0.011241   0.000000
    4  LI 1  Y    0.000000  -0.000000   0.011241  -0.000000   0.000000
    5  LI 1  Z   -0.029554   0.137123  -0.000000  -0.000000  -0.038632
    6  LI 1  S   -2.537990  -1.558347  -0.000000  -0.000000   0.102237
    7  LI 1  X    0.000000  -0.000000  -0.000000  -0.015172   0.000000
    8  LI 1  Y    0.000000  -0.000000  -0.015172  -0.000000   0.000000
    9  LI 1  Z    0.058169  -0.220211  -0.000000  -0.000000   0.059793
   10  LI 1 XX   -2.796841  -1.445396  -0.000000  -0.000000   0.050966
   11  LI 1 YY   -2.796841  -1.445396  -0.000000  -0.000000   0.050966
   12  LI 1 ZZ   -2.784940  -1.478072  -0.000000  -0.000000   0.052511
   13  LI 1 XY    0.000000  -0.000000  -0.000000  -0.000000   0.000000
   14  LI 1 XZ    0.000000  -0.000000  -0.000000  -0.000199   0.000000
   15  LI 1 YZ    0.000000  -0.000000  -0.000199  -0.000000   0.000000
   16  H  2  S    0.571564  -1.177514  -0.000000  -0.000000   0.011536
   17  H  2  S   -0.416518   1.050985  -0.000000  -0.000000  -0.023129
   18  H  2  X    0.000000  -0.000000  -0.000000   1.000031   0.000000
   19  H  2  Y    0.000000  -0.000000   1.000031  -0.000000   0.000000
   20  H  2  Z    0.002348   0.005489  -0.000000  -0.000000   1.000678
 ...... END OF RHF CALCULATION ......
 STEP CPU TIME =     0.01 TOTAL CPU TIME =        0.0 (    0.0 MIN)
 TOTAL WALL CLOCK TIME=        0.1 SECONDS, CPU UTILIZATION IS  36.36%

     ----------------------------------------------------------------
     PROPERTY VALUES FOR THE RHF   SELF-CONSISTENT FIELD WAVEFUNCTION
     ----------------------------------------------------------------

          -----------------
          ENERGY COMPONENTS
          -----------------

         WAVEFUNCTION NORMALIZATION =       1.0000000000

                ONE ELECTRON ENERGY =     -10.8249013333
                TWO ELECTRON ENERGY =       2.6445759876
           NUCLEAR REPULSION ENERGY =       0.3451155973
                                      ------------------
                       TOTAL ENERGY =      -7.8352097484

 ELECTRON-ELECTRON POTENTIAL ENERGY =       2.6445759876
  NUCLEUS-ELECTRON POTENTIAL ENERGY =     -18.6420084345
   NUCLEUS-NUCLEUS POTENTIAL ENERGY =       0.3451155973
                                      ------------------
             TOTAL POTENTIAL ENERGY =     -15.6523168496
               TOTAL KINETIC ENERGY =       7.8171071012
                 VIRIAL RATIO (V/T) =       2.0023157732

  ...... PI ENERGY ANALYSIS ......

 ENERGY ANALYSIS:
            FOCK ENERGY=     -5.5357493722
          BARE H ENERGY=    -10.8249013333
     ELECTRONIC ENERGY =     -8.1803253528
         KINETIC ENERGY=      7.8171071012
          N-N REPULSION=      0.3451155973
           TOTAL ENERGY=     -7.8352097554
        SIGMA PART(1+2)=     -8.1803253528
               (K,V1,2)=      7.8171071012    -18.6420084345      2.6445759806
           PI PART(1+2)=      0.0000000000
               (K,V1,2)=      0.0000000000      0.0000000000      0.0000000000
  SIGMA SKELETON, ERROR=     -7.8352097554      0.0000000000
             MIXED PART= 0.00000E+00 0.00000E+00 0.00000E+00 0.00000E+00
 ...... END OF PI ENERGY ANALYSIS ......

          ---------------------------------------
          MULLIKEN AND LOWDIN POPULATION ANALYSES
          ---------------------------------------

     ATOMIC MULLIKEN POPULATION IN EACH MOLECULAR ORBITAL

                      1          2

                  2.000000   2.000000

    1             2.000000   0.641724
    2            -0.000000   1.358276

               ----- POPULATIONS IN EACH AO -----
                             MULLIKEN      LOWDIN
              1  LI 1  S      1.99804     1.97994
              2  LI 1  S     -0.07064     0.10219
              3  LI 1  X      0.00000     0.00000
              4  LI 1  Y      0.00000     0.00000
              5  LI 1  Z     -0.00997     0.01072
              6  LI 1  S      0.51751     0.32939
              7  LI 1  X      0.00000     0.00000
              8  LI 1  Y      0.00000     0.00000
              9  LI 1  Z      0.14061     0.11881
             10  LI 1 XX      0.01992     0.02821
             11  LI 1 YY      0.01992     0.02821
             12  LI 1 ZZ      0.02633     0.03313
             13  LI 1 XY      0.00000     0.00000
             14  LI 1 XZ      0.00000     0.00000
             15  LI 1 YZ      0.00000     0.00000
             16  H  2  S      0.31865     0.39463
             17  H  2  S      1.03961     0.97470
             18  H  2  X      0.00000     0.00000
             19  H  2  Y      0.00000     0.00000
             20  H  2  Z      0.00002     0.00006

          ----- MULLIKEN ATOMIC OVERLAP POPULATIONS -----
          (OFF-DIAGONAL ELEMENTS NEED TO BE MULTIPLIED BY 2)

             1           2

    1    2.5366633
    2    0.1050608   1.2532151

          TOTAL MULLIKEN AND LOWDIN ATOMIC POPULATIONS
       ATOM         MULL.POP.    CHARGE          LOW.POP.     CHARGE
    1 LI            2.641724    0.358276         2.630609    0.369391
    2 H             1.358276   -0.358276         1.369391   -0.369391

          -------------------------------
          BOND ORDER AND VALENCE ANALYSIS     BOND ORDER THRESHOLD=0.050
          -------------------------------

                   BOND                       BOND                       BOND
  ATOM PAIR DIST  ORDER      ATOM PAIR DIST  ORDER      ATOM PAIR DIST  ORDER
    1   2  4.600  0.872

                       TOTAL       BONDED        FREE
      ATOM            VALENCE     VALENCE     VALENCE
    1 LI                0.872       0.872       0.000
    2 H                 0.872       0.872       0.000

          ---------------------
          ELECTROSTATIC MOMENTS
          ---------------------

 POINT   1           X           Y           Z (BOHR)    CHARGE
                 0.000000    0.000000    1.091843        0.00 (A.U.)
         DX          DY          DZ         /D/  (DEBYE)
     0.000000    0.000000  -12.035804   12.035804
 ...... END OF PROPERTY EVALUATION ......
 STEP CPU TIME =     0.00 TOTAL CPU TIME =        0.0 (    0.0 MIN)
 TOTAL WALL CLOCK TIME=        0.1 SECONDS, CPU UTILIZATION IS  33.33%

 --------------------------   -----------------------------
 RHF-MP2 ENERGY CALCULATION   PROGRAM WRITTEN BY K.ISHIMURA
 --------------------------   -----------------------------
 NUMBER OF OCCUPIED ORBITALS            =    2
 NUMBER OF CORRELATED OCCUPIED ORBITALS =    2
 NUMBER OF VIRTUAL ORBITALS             =   18
 NUMBER OF BASIS FUNCTIONS              =   20
 NUMBER OF BASIS SHELLS                 =    7
 AO-TRANSFORMED INTEGRAL THRESHOLD      = 1.00E-09
 HALF-TRANSFORMED INTEGRAL THRESHOLD    = 1.44E-11
 TOTAL DISK REQUIRED (ALL PROCESSORS)=              0 MBYTES
                  DISK SPACE PER CORE=              0 MBYTES, USING P=    1
 MEMORY REQUIRED FOR TRANSFORMATION OF 1ST THREE INDICES=       12422
 MEMORY REQUIRED FOR    4TH INDEX TRANSF. AND MP2 ENERGY=        3084
 BEGINNING MP2 INTEGRAL TRANSFORMATION...
 BEGINNING    1ST SHELL LOOP...

 RESULTS OF MOLLER-PLESSET 2ND ORDER CORRECTION ARE
               E(0)=        -7.8352097484
               E(1)=         0.0
               E(2)=        -0.0456585080
             E(MP2)=        -7.8808682564
 SPIN-COMPONENT-SCALED MP2 RESULTS ARE
              E(2S)=        -0.0456492333
              E(2T)=        -0.0000092747
             E(2ST)=        -0.0547821715 = 6/5 * E(2S) + 1/3 * E(2T)
            SCS-MP2=        -7.8899919199
 ..... DONE WITH MP2 ENERGY .....
 STEP CPU TIME =     0.02 TOTAL CPU TIME =        0.1 (    0.0 MIN)
 TOTAL WALL CLOCK TIME=        0.2 SECONDS, CPU UTILIZATION IS  25.00%
               580000  WORDS OF DYNAMIC MEMORY USED
 EXECUTION OF GAMESS TERMINATED NORMALLY Thu Jan 17 17:52:57 2019
 DDI: 263640 bytes (0.3 MB / 0 MWords) used by master data server.

 ----------------------------------------
 CPU timing information for all processes
 ========================================
 0: 0.43 + 0.20 = 0.64
 1: 0.01 + 0.02 = 0.04
 ----------------------------------------
 ddikick.x: exited gracefully.
unset echo
----- accounting info -----
Files used on the master node bach.ad64.riken.go.jp were:
-rw-------  1 maho  staff      261  1 17 17:52 .//LiH.631g/4.6/LiH.631g.MP2.4.6.gamess.F05
-rw-r--r--  1 maho  staff   180016  1 17 17:52 .//LiH.631g/4.6/LiH.631g.MP2.4.6.gamess.F08
-rw-r--r--  1 maho  staff  1537840  1 17 17:52 .//LiH.631g/4.6/LiH.631g.MP2.4.6.gamess.F10
-rw-r--r--  1 maho  staff     7352  1 17 17:52 .//LiH.631g/4.6/LiH.631g.MP2.4.6.gamess.dat
-rw-------  1 maho  staff      261  1 17 17:52 .//LiH.631g/4.6/LiH.631g.MP2.4.6.gamess.inp
-rw-r--r--  1 maho  staff    32061  1 17 17:53 .//LiH.631g/4.6/LiH.631g.MP2.4.6.gamess.log
ls: No match.
ls: No match.
ls: No match.
2019年 1月17日 木曜日 17時53分00秒 JST
0.157u 0.134s 0:03.65 7.6%	0+0k 0+8io 0pf+0w
