----- GAMESS execution script 'rungms' -----
This job is running on host localhost
under operating system Linux at Thu Jan 17 18:58:03 JST 2019
Available scratch disk space (Kbyte units) at beginning of the job is
Filesystem     1K-blocks      Used Available Use% Mounted on
/dev/sda1      895286904 141746960 708038916  17% /
GAMESS temporary binary files will be written to .
GAMESS supplementary output files will be written to .
Copying input file N2.SV/4.2/N2.SV.fullCI.4.2.gamess.inp to your run's scratch directory...
cp N2.SV/4.2/N2.SV.fullCI.4.2.gamess.inp ./N2.SV/4.2/N2.SV.fullCI.4.2.gamess.F05
unset echo
/work/pubchem/pm6/pkg/gamess_intel/ddikick.x /work/pubchem/pm6/pkg/gamess_intel/gamess.00.x N2.SV/4.2/N2.SV.fullCI.4.2.gamess -ddi 12 12 localhost localhost localhost localhost localhost localhost localhost localhost localhost localhost localhost localhost -scr .

 Distributed Data Interface kickoff program.
 Initiating 12 compute processes on 12 nodes to run the following command:
 /work/pubchem/pm6/pkg/gamess_intel/gamess.00.x N2.SV/4.2/N2.SV.fullCI.4.2.gamess 

          ******************************************************
          *         GAMESS VERSION =  5 DEC 2014 (R1)          *
          *             FROM IOWA STATE UNIVERSITY             *
          * M.W.SCHMIDT, K.K.BALDRIDGE, J.A.BOATZ, S.T.ELBERT, *
          *   M.S.GORDON, J.H.JENSEN, S.KOSEKI, N.MATSUNAGA,   *
          *          K.A.NGUYEN, S.J.SU, T.L.WINDUS,           *
          *       TOGETHER WITH M.DUPUIS, J.A.MONTGOMERY       *
          *         J.COMPUT.CHEM.  14, 1347-1363(1993)        *
          **************** 64 BIT INTEL VERSION ****************

  SINCE 1993, STUDENTS AND POSTDOCS WORKING AT IOWA STATE UNIVERSITY
  AND ALSO IN THEIR VARIOUS JOBS AFTER LEAVING ISU HAVE MADE IMPORTANT
  CONTRIBUTIONS TO THE CODE:
     IVANA ADAMOVIC, CHRISTINE AIKENS, YURI ALEXEEV, POOJA ARORA,
     ANDREY ASADCHEV, ROB BELL, PRADIPTA BANDYOPADHYAY, JONATHAN BENTZ,
     BRETT BODE, KURT BRORSEN, CALEB CARLIN, GALINA CHABAN, WEI CHEN,
     CHEOL HO CHOI, PAUL DAY, ALBERT DEFUSCO, NUWAN DESILVA, TIM DUDLEY,
     DMITRI FEDOROV, GRAHAM FLETCHER, MARK FREITAG, KURT GLAESEMANN,
     DAN KEMP, GRANT MERRILL, NORIYUKI MINEZAWA, JONATHAN MULLIN,
     TAKESHI NAGATA, SEAN NEDD, HEATHER NETZLOFF, BOSILJKA NJEGIC, RYAN OLSON,
     MIKE PAK, SPENCER PRUITT, LUKE ROSKOP, JIM SHOEMAKER, LYUDMILA SLIPCHENKO,
     TONY SMITH, SAROM SOK, JIE SONG, TETSUYA TAKETSUGU, SIMON WEBB,
     PENG XU, SOOHAENG YOO, FEDERICO ZAHARIEV

  ADDITIONAL CODE HAS BEEN PROVIDED BY COLLABORATORS IN OTHER GROUPS:
     IOWA STATE UNIVERSITY:
          JOE IVANIC, AARON WEST, LAIMUTIS BYTAUTAS, KLAUS RUEDENBERG
     UNIVERSITY OF TOKYO: KIMIHIKO HIRAO, TAKAHITO NAKAJIMA,
          TAKAO TSUNEDA, MUNEAKI KAMIYA, SUSUMU YANAGISAWA,
          KIYOSHI YAGI, MAHITO CHIBA, SEIKEN TOKURA, NAOAKI KAWAKAMI
     UNIVERSITY OF AARHUS: FRANK JENSEN
     UNIVERSITY OF IOWA: VISVALDAS KAIRYS, HUI LI
     NATIONAL INST. OF STANDARDS AND TECHNOLOGY: WALT STEVENS, DAVID GARMER
     UNIVERSITY OF PISA: BENEDETTA MENNUCCI, JACOPO TOMASI
     UNIVERSITY OF MEMPHIS: HENRY KURTZ, PRAKASHAN KORAMBATH
     UNIVERSITY OF ALBERTA: TOBY ZENG, MARIUSZ KLOBUKOWSKI
     UNIVERSITY OF NEW ENGLAND: MARK SPACKMAN
     MIE UNIVERSITY: HIROAKI UMEDA
     NAT. INST. OF ADVANCED INDUSTRIAL SCIENCE AND TECHNOLOGY: KAZUO KITAURA
     MICHIGAN STATE UNIVERSITY:
          KAROL KOWALSKI, MARTA WLOCH, JEFFREY GOUR, JESSE LUTZ,
          WEI LI, PIOTR PIECUCH
     UNIVERSITY OF SILESIA: MONIKA MUSIAL, STANISLAW KUCHARSKI
     FACULTES UNIVERSITAIRES NOTRE-DAME DE LA PAIX:
          OLIVIER QUINET, BENOIT CHAMPAGNE
     UNIVERSITY OF CALIFORNIA - SANTA BARBARA: BERNARD KIRTMAN
     INSTITUTE FOR MOLECULAR SCIENCE:
          KAZUYA ISHIMURA, MICHIO KATOUDA, AND SHIGERU NAGASE
     UNIVERSITY OF NOTRE DAME: ANNA POMOGAEVA, DAN CHIPMAN
     KYUSHU UNIVERSITY:
          HARUYUKI NAKANO,
          FENG LONG GU, JACEK KORCHOWIEC, MARCIN MAKOWSKI, AND YURIKO AOKI,
          HIROTOSHI MORI AND EISAKU MIYOSHI
     PENNSYLVANIA STATE UNIVERSITY:
          TZVETELIN IORDANOV, CHET SWALINA, JONATHAN SKONE,
          SHARON HAMMES-SCHIFFER
     WASEDA UNIVERSITY:
          MASATO KOBAYASHI, TOMOKO AKAMA, TSUGUKI TOUMA,
          TAKESHI YOSHIKAWA, YASUHIRO IKABATA, HIROMI NAKAI
     NANJING UNIVERSITY: SHUHUA LI
     UNIVERSITY OF NEBRASKA:
          PEIFENG SU, DEJUN SI, NANDUN THELLAMUREGE, YALI WANG, HUI LI
     UNIVERSITY OF ZURICH: ROBERTO PEVERATI, KIM BALDRIDGE
     N. COPERNICUS UNIVERSITY AND JACKSON STATE UNIVERSITY:
          MARIA BARYSZ
     UNIVERSITY OF COPENHAGEN: CASPER STEINMANN
     TOKYO INSTITUTE OF TECHNOLOGY: HIROYA NAKATA
     NAGOYA UNIVERSITY: YOSHIO NISHIMOTO, STEPHAN IRLE


 PARALLEL VERSION RUNNING ON       12 PROCESSORS IN       12 NODES.

 EXECUTION OF GAMESS BEGUN Thu Jan 17 18:58:04 2019

            ECHO OF THE FIRST FEW INPUT CARDS -
 INPUT CARD> $CONTRL SCFTYP=RHF CITYP=ALDET $END                                            
 INPUT CARD> $GUESS GUESS=HUCKEL $END                                                       
 INPUT CARD> $SYSTEM MWORDS=300 $END                                                        
 INPUT CARD> $CIDET SZ=0 GROUP=C2V NCORE=2 NACT=16 NELS=10 NSTGSS=6 $END                    
 INPUT CARD> $DATA                                                                          
 INPUT CARD>N2...HF...Double-zeta basis                                                     
 INPUT CARD>Cnv   2                                                                         
 INPUT CARD>                                                                                
 INPUT CARD>N     7.0    0.0      0.0     0.0                                               
 INPUT CARD>S   7                                                                           
 INPUT CARD>  1   5909.0000000              0.0011900                                       
 INPUT CARD>  2    887.5000000              0.0090990                                       
 INPUT CARD>  3    204.7000000              0.0441450                                       
 INPUT CARD>  4     59.8400000              0.1504640                                       
 INPUT CARD>  5     20.0000000              0.3567410                                       
 INPUT CARD>  6      7.1930000              0.4465330                                       
 INPUT CARD>  7      2.6860000              0.1456030                                       
 INPUT CARD>S   2                                                                           
 INPUT CARD>  1      7.1930000             -0.1604050                                       
 INPUT CARD>  2      0.7000000              1.0582150                                       
 INPUT CARD>S   1                                                                           
 INPUT CARD>  1      0.2133000              1.0000000                                       
 INPUT CARD>P   4                                                                           
 INPUT CARD>  1     26.7900000              0.0182540                                       
 INPUT CARD>  2      5.9560000              0.1164610                                       
 INPUT CARD>  3      1.7070000              0.3901780                                       
 INPUT CARD>  4      0.5314000              0.6371020                                       
 INPUT CARD>P   1                                                                           
 INPUT CARD>  1      0.1654000              1.0000000                                       
 INPUT CARD>                                                                                
 INPUT CARD>N     7.0    0.0      0.0     4.2                                               
 INPUT CARD>S   7                                                                           
 INPUT CARD>  1   5909.0000000              0.0011900                                       
 INPUT CARD>  2    887.5000000              0.0090990                                       
 INPUT CARD>  3    204.7000000              0.0441450                                       
 INPUT CARD>  4     59.8400000              0.1504640                                       
 INPUT CARD>  5     20.0000000              0.3567410                                       
 INPUT CARD>  6      7.1930000              0.4465330                                       
 INPUT CARD>  7      2.6860000              0.1456030                                       
 INPUT CARD>S   2                                                                           
 INPUT CARD>  1      7.1930000             -0.1604050                                       
 INPUT CARD>  2      0.7000000              1.0582150                                       
 INPUT CARD>S   1                                                                           
 INPUT CARD>  1      0.2133000              1.0000000                                       
 INPUT CARD>P   4                                                                           
 INPUT CARD>  1     26.7900000              0.0182540                                       
 INPUT CARD>  2      5.9560000              0.1164610                                       
 INPUT CARD>  3      1.7070000              0.3901780                                       
 INPUT CARD>  4      0.5314000              0.6371020                                       
 INPUT CARD>P   1                                                                           
  300000000 WORDS OF MEMORY AVAILABLE


     RUN TITLE
     ---------
 N2...HF...Double-zeta basis                                                     

 THE POINT GROUP OF THE MOLECULE IS CNV     
 THE ORDER OF THE PRINCIPAL AXIS IS     2

 ATOM      ATOMIC                      COORDINATES (BOHR)
           CHARGE         X                   Y                   Z
 N           7.0     0.0000000000        0.0000000000        0.0000000000
 N           7.0     0.0000000000        0.0000000000        7.9368491484

          INTERNUCLEAR DISTANCES (ANGS.)
          ------------------------------

                1 N          2 N     

   1 N       0.0000000    4.2000000  
   2 N       4.2000000    0.0000000  

  * ... LESS THAN  3.000


     ATOMIC BASIS SET
     ----------------
 THE CONTRACTED PRIMITIVE FUNCTIONS HAVE BEEN UNNORMALIZED
 THE CONTRACTED BASIS FUNCTIONS ARE NOW NORMALIZED TO UNITY

  SHELL TYPE  PRIMITIVE        EXPONENT          CONTRACTION COEFFICIENT(S)

 N         

      1   S       1          5909.0000000    0.001189999548
      1   S       2           887.5000000    0.009098996542
      1   S       3           204.7000000    0.044144983225
      1   S       4            59.8400000    0.150463942825
      1   S       5            20.0000000    0.356740864442
      1   S       6             7.1930000    0.446532830321
      1   S       7             2.6860000    0.145602944672

      2   S       8             7.1930000   -0.160405033446
      2   S       9             0.7000000    1.058215220651

      3   S      10             0.2133000    1.000000000000

      4   P      11            26.7900000    0.018253998243
      4   P      12             5.9560000    0.116460988791
      4   P      13             1.7070000    0.390177962446
      4   P      14             0.5314000    0.637101938680

      5   P      15             0.1654000    1.000000000000

 N         

      6   S      16          5909.0000000    0.001189999548
      6   S      17           887.5000000    0.009098996542
      6   S      18           204.7000000    0.044144983225
      6   S      19            59.8400000    0.150463942825
      6   S      20            20.0000000    0.356740864442
      6   S      21             7.1930000    0.446532830321
      6   S      22             2.6860000    0.145602944672

      7   S      23             7.1930000   -0.160405033446
      7   S      24             0.7000000    1.058215220651

      8   S      25             0.2133000    1.000000000000

      9   P      26            26.7900000    0.018253998243
      9   P      27             5.9560000    0.116460988791
      9   P      28             1.7070000    0.390177962446
      9   P      29             0.5314000    0.637101938680

     10   P      30             0.1654000    1.000000000000

 TOTAL NUMBER OF BASIS SET SHELLS             =   10
 NUMBER OF CARTESIAN GAUSSIAN BASIS FUNCTIONS =   18
 NUMBER OF ELECTRONS                          =   14
 CHARGE OF MOLECULE                           =    0
 SPIN MULTIPLICITY                            =    1
 NUMBER OF OCCUPIED ORBITALS (ALPHA)          =    7
 NUMBER OF OCCUPIED ORBITALS (BETA )          =    7
 TOTAL NUMBER OF ATOMS                        =    2
 THE NUCLEAR REPULSION ENERGY IS        6.1737345745

 THIS MOLECULE IS RECOGNIZED AS BEING LINEAR,
 ORBITAL LZ DEGENERACY TOLERANCE ETOLLZ= 1.00E-06

     $CONTRL OPTIONS
     ---------------
 SCFTYP=RHF          RUNTYP=ENERGY       EXETYP=RUN     
 MPLEVL=       0     CITYP =ALDET        CCTYP =NONE         VBTYP =NONE    
 DFTTYP=NONE         TDDFT =NONE    
 MULT  =       1     ICHARG=       0     NZVAR =       0     COORD =UNIQUE  
 PP    =NONE         RELWFN=NONE         LOCAL =NONE         NUMGRD=       F
 ISPHER=      -1     NOSYM =       0     MAXIT =      30     UNITS =ANGS    
 PLTORB=       F     MOLPLT=       F     AIMPAC=       F     FRIEND=        
 NPRINT=       7     IREST =       0     GEOM  =INPUT   
 NORMF =       0     NORMP =       0     ITOL  =      20     ICUT  =       9
 INTTYP=BEST         GRDTYP=BEST         QMTTOL= 1.0E-06

     $SYSTEM OPTIONS
     ---------------
  REPLICATED MEMORY=   300000000 WORDS (ON EVERY NODE).
 DISTRIBUTED MEMDDI=           0 MILLION WORDS IN AGGREGATE,
 MEMDDI DISTRIBUTED OVER  12 PROCESSORS IS           0 WORDS/PROCESSOR.
 TOTAL MEMORY REQUESTED ON EACH PROCESSOR=   300000000 WORDS.
 TIMLIM=      525600.00 MINUTES, OR     365.0 DAYS.
 PARALL= T  BALTYP=  DLB     KDIAG=    0  COREFL= F
 MXSEQ2=     300 MXSEQ3=     150  mem10=         0

          ----------------
          PROPERTIES INPUT
          ----------------

     MOMENTS            FIELD           POTENTIAL          DENSITY
 IEMOM =       1   IEFLD =       0   IEPOT =       0   IEDEN =       0
 WHERE =COMASS     WHERE =NUCLEI     WHERE =NUCLEI     WHERE =NUCLEI  
 OUTPUT=BOTH       OUTPUT=BOTH       OUTPUT=BOTH       OUTPUT=BOTH    
 IEMINT=       0   IEFINT=       0                     IEDINT=       0
                                                       MORB  =       0
          EXTRAPOLATION IN EFFECT
          SOSCF IN EFFECT
 ORBITAL PRINTING OPTION: NPREO=     1    18     2     1

     -------------------------------
     INTEGRAL TRANSFORMATION OPTIONS
     -------------------------------
     NWORD  =            0
     CUTOFF = 1.0E-09     MPTRAN =       0
     DIRTRF =       F     AOINTS =DUP     

          ----------------------
          INTEGRAL INPUT OPTIONS
          ----------------------
 NOPK  =       1 NORDER=       0 SCHWRZ=       F

     ------------------------------------------
     THE POINT GROUP IS CNV, NAXIS= 2, ORDER= 4
     ------------------------------------------

     DIMENSIONS OF THE SYMMETRY SUBSPACES ARE
 A1  =   10     A2  =    0     B1  =    4     B2  =    4

 ..... DONE SETTING UP THE RUN .....
 CPU     0: STEP CPU TIME=     0.02 TOTAL CPU TIME=        0.0 (    0.0 MIN)
 TOTAL WALL CLOCK TIME=        0.0 SECONDS, CPU UTILIZATION IS 100.00%

          ********************
          1 ELECTRON INTEGRALS
          ********************
 ...... END OF ONE-ELECTRON INTEGRALS ......
 CPU     0: STEP CPU TIME=     0.00 TOTAL CPU TIME=        0.0 (    0.0 MIN)
 TOTAL WALL CLOCK TIME=        0.1 SECONDS, CPU UTILIZATION IS  33.33%

          -------------
          GUESS OPTIONS
          -------------
          GUESS =HUCKEL            NORB  =       0          NORDER=       0
          MIX   =       F          PRTMO =       F          PUNMO =       F
          TOLZ  = 1.0E-08          TOLE  = 1.0E-05
          SYMDEN=       F          PURIFY=       F

 INITIAL GUESS ORBITALS GENERATED BY HUCKEL   ROUTINE.
 HUCKEL GUESS REQUIRES      4352 WORDS.

 SYMMETRIES FOR INITIAL GUESS ORBITALS FOLLOW.   BOTH SET(S).
     7 ORBITALS ARE OCCUPIED (    2 CORE ORBITALS).
     3=A1       4=A1       5=A1       6=B2       7=B1       8=B1       9=B2  
    10=A1      11=A1      12=A1      13=A1      14=A1      15=B1      16=B1  
    17=B2  
 ...... END OF INITIAL ORBITAL SELECTION ......
 CPU     0: STEP CPU TIME=     0.01 TOTAL CPU TIME=        0.0 (    0.0 MIN)
 TOTAL WALL CLOCK TIME=        0.1 SECONDS, CPU UTILIZATION IS  50.00%

                    ----------------------
                    AO INTEGRAL TECHNOLOGY
                    ----------------------
     S,P,L SHELL ROTATED AXIS INTEGRALS, REPROGRAMMED BY
        KAZUYA ISHIMURA (IMS) AND JOSE SIERRA (SYNSTAR).
     S,P,D,L SHELL ROTATED AXIS INTEGRALS PROGRAMMED BY
        KAZUYA ISHIMURA (INSTITUTE FOR MOLECULAR SCIENCE).
     S,P,D,F,G SHELL TO TOTAL QUARTET ANGULAR MOMENTUM SUM 5,
        ERIC PROGRAM BY GRAHAM FLETCHER (ELORET AND NASA ADVANCED
        SUPERCOMPUTING DIVISION, AMES RESEARCH CENTER).
     S,P,D,F,G,L SHELL GENERAL RYS QUADRATURE PROGRAMMED BY
        MICHEL DUPUIS (PACIFIC NORTHWEST NATIONAL LABORATORY).

          --------------------
          2 ELECTRON INTEGRALS
          --------------------

 THE -PK- OPTION IS OFF, THE INTEGRALS ARE NOT IN SUPERMATRIX FORM.
 STORING   15000 INTEGRALS/RECORD ON DISK, USING 12 BYTES/INTEGRAL.
 TWO ELECTRON INTEGRAL EVALUATION REQUIRES   89411 WORDS OF MEMORY.
 II,JST,KST,LST =  1  1  1  1 NREC =         1 INTLOC =    1
 II,JST,KST,LST =  2  1  1  1 NREC =         1 INTLOC =    2
 II,JST,KST,LST =  3  1  1  1 NREC =         1 INTLOC =    2
 II,JST,KST,LST =  4  1  1  1 NREC =         1 INTLOC =    8
 II,JST,KST,LST =  5  1  1  1 NREC =         1 INTLOC =    8
 II,JST,KST,LST =  6  1  1  1 NREC =         1 INTLOC =   95
 II,JST,KST,LST =  7  1  1  1 NREC =         1 INTLOC =   95
 II,JST,KST,LST =  8  1  1  1 NREC =         1 INTLOC =  109
 II,JST,KST,LST =  9  1  1  1 NREC =         1 INTLOC =  153
 II,JST,KST,LST = 10  1  1  1 NREC =         1 INTLOC =  153
 TOTAL NUMBER OF NONZERO TWO-ELECTRON INTEGRALS =                3101
         12 INTEGRAL RECORDS WERE STORED ON DISK FILE  8.
  ...... END OF TWO-ELECTRON INTEGRALS .....
 CPU     0: STEP CPU TIME=     0.01 TOTAL CPU TIME=        0.0 (    0.0 MIN)
 TOTAL WALL CLOCK TIME=        0.1 SECONDS, CPU UTILIZATION IS  50.00%

          --------------------------
                 RHF SCF CALCULATION
          --------------------------

     NUCLEAR ENERGY =         6.1737345745
     MAXIT =   30     NPUNCH=    2
     EXTRAP=T  DAMP=F  SHIFT=F  RSTRCT=F  DIIS=F  DEM=F  SOSCF=T
     DENSITY MATRIX CONV=  1.00E-06
     SOSCF WILL OPTIMIZE      77 ORBITAL ROTATIONS, SOGTOL=   0.250
     MEMORY REQUIRED FOR RHF ITERS=     32828 WORDS.

 ITER EX DEM     TOTAL ENERGY        E CHANGE  DENSITY CHANGE     ORB. GRAD
   1  0  0     -107.6816487724  -107.6816487724   0.272182534   0.000000000
          ---------------START SECOND ORDER SCF---------------
   2  1  0     -107.8643936373    -0.1827448648   0.116178451   0.062661618
   3  2  0     -107.8799104585    -0.0155168213   0.025828842   0.024271805
   4  3  0     -107.8829470756    -0.0030366170   0.002800459   0.001373692
   5  4  0     -107.8829590018    -0.0000119263   0.000934248   0.000375426
   6  5  0     -107.8829595924    -0.0000005906   0.000020641   0.000016355
   7  6  0     -107.8829595943    -0.0000000019   0.000006597   0.000003212
   8  7  0     -107.8829595945    -0.0000000001   0.000000686   0.000000359
   9  8  0     -107.8829595945    -0.0000000000   0.000000044   0.000000023

          -----------------
          DENSITY CONVERGED
          -----------------
     TIME TO FORM FOCK OPERATORS=       0.0 SECONDS (       0.0 SEC/ITER)
     TIME TO SOLVE SCF EQUATIONS=       0.0 SECONDS (       0.0 SEC/ITER)

 FINAL RHF ENERGY IS     -107.8829595945 AFTER   9 ITERATIONS

 LZ VALUE ANALYSIS FOR THE MOS
 ----------------------------------------
 MO     1 (    1) HAS LZ(WEIGHT)= 0.00(100.0%) 
 MO     2 (    2) HAS LZ(WEIGHT)= 0.00(100.0%) 
 MO     3 (    3) HAS LZ(WEIGHT)= 0.00(100.0%) 
 MO     4 (    4) HAS LZ(WEIGHT)= 0.00(100.0%) 
 MO     5 (    5) HAS LZ(WEIGHT)= 0.00(100.0%) 
 MO     6 (    6) HAS LZ(WEIGHT)=-1.00( 50.0%)  1.00( 50.0%) 
 MO     7 (    6) HAS LZ(WEIGHT)=-1.00( 50.0%)  1.00( 50.0%) 
 MO     8 (    7) HAS LZ(WEIGHT)=-1.00( 50.0%)  1.00( 50.0%) 
 MO     9 (    7) HAS LZ(WEIGHT)=-1.00( 50.0%)  1.00( 50.0%) 
 MO    10 (    8) HAS LZ(WEIGHT)= 0.00(100.0%) 
 MO    11 (    9) HAS LZ(WEIGHT)= 0.00(100.0%) 
 MO    12 (   10) HAS LZ(WEIGHT)=-1.00( 50.0%)  1.00( 50.0%) 
 MO    13 (   10) HAS LZ(WEIGHT)=-1.00( 50.0%)  1.00( 50.0%) 
 MO    14 (   11) HAS LZ(WEIGHT)=-1.00( 50.0%)  1.00( 50.0%) 
 MO    15 (   11) HAS LZ(WEIGHT)=-1.00( 50.0%)  1.00( 50.0%) 
 MO    16 (   12) HAS LZ(WEIGHT)= 0.00(100.0%) 
 MO    17 (   13) HAS LZ(WEIGHT)= 0.00(100.0%) 
 MO    18 (   14) HAS LZ(WEIGHT)= 0.00(100.0%) 

          ------------
          EIGENVECTORS
          ------------

                      1          2          3          4          5
                  -15.8206   -15.8205    -1.0299    -1.0242    -0.3213
                     A1         A1         A1         A1         A1  
    1  N  1  S    0.706972  -0.706975  -0.173288  -0.173560  -0.002610
    2  N  1  S   -0.000116   0.000109   0.408995   0.412103   0.014678
    3  N  1  S    0.000908  -0.000880   0.359449   0.356561  -0.006449
    4  N  1  X    0.000000   0.000000   0.000000   0.000000   0.000000
    5  N  1  Y    0.000000   0.000000   0.000000   0.000000   0.000000
    6  N  1  Z    0.000088  -0.000052   0.002741  -0.006283  -0.493503
    7  N  1  X    0.000000   0.000000   0.000000   0.000000   0.000000
    8  N  1  Y    0.000000   0.000000   0.000000   0.000000   0.000000
    9  N  1  Z   -0.000021   0.000039   0.003924  -0.004576  -0.304163
   10  N  2  S    0.706972   0.706975  -0.173288   0.173560  -0.002610
   11  N  2  S   -0.000116  -0.000109   0.408995  -0.412103   0.014678
   12  N  2  S    0.000908   0.000880   0.359449  -0.356561  -0.006449
   13  N  2  X    0.000000   0.000000   0.000000   0.000000   0.000000
   14  N  2  Y    0.000000   0.000000   0.000000   0.000000   0.000000
   15  N  2  Z   -0.000088  -0.000052  -0.002741  -0.006283   0.493503
   16  N  2  X    0.000000   0.000000   0.000000   0.000000   0.000000
   17  N  2  Y    0.000000   0.000000   0.000000   0.000000   0.000000
   18  N  2  Z    0.000021   0.000039  -0.003924  -0.004576   0.304163

                      6          7          8          9         10
                   -0.3158    -0.3158    -0.1909    -0.1909    -0.1804
                     B1         B2         B1         B2         A1  
    1  N  1  S    0.000000   0.000000   0.000000   0.000000  -0.003242
    2  N  1  S    0.000000   0.000000   0.000000   0.000000   0.012703
    3  N  1  S    0.000000   0.000000   0.000000   0.000000  -0.000592
    4  N  1  X    0.504611   0.000000  -0.505911   0.000000   0.000000
    5  N  1  Y    0.000000   0.504611   0.000000  -0.505911   0.000000
    6  N  1  Z    0.000000   0.000000   0.000000   0.000000   0.510642
    7  N  1  X    0.295713   0.000000  -0.295116   0.000000   0.000000
    8  N  1  Y    0.000000   0.295713   0.000000  -0.295116   0.000000
    9  N  1  Z    0.000000   0.000000   0.000000   0.000000   0.293524
   10  N  2  S    0.000000   0.000000   0.000000   0.000000   0.003242
   11  N  2  S    0.000000   0.000000   0.000000   0.000000  -0.012703
   12  N  2  S    0.000000   0.000000   0.000000   0.000000   0.000592
   13  N  2  X    0.504611   0.000000   0.505911   0.000000   0.000000
   14  N  2  Y    0.000000   0.504611   0.000000   0.505911   0.000000
   15  N  2  Z    0.000000   0.000000   0.000000   0.000000   0.510642
   16  N  2  X    0.295713   0.000000   0.295116   0.000000   0.000000
   17  N  2  Y    0.000000   0.295713   0.000000   0.295116   0.000000
   18  N  2  Z    0.000000   0.000000   0.000000   0.000000   0.293524

                     11         12         13         14         15
                    0.5983     0.6356     0.6356     0.6491     0.6491
                     A1         B2         B1         B2         B1  
    1  N  1  S    0.006856   0.000000   0.000000   0.000000   0.000000
    2  N  1  S   -0.070015   0.000000   0.000000   0.000000   0.000000
    3  N  1  S    0.063595   0.000000   0.000000   0.000000   0.000000
    4  N  1  X    0.000000   0.000000  -0.660866   0.000000   0.661836
    5  N  1  Y    0.000000  -0.660866   0.000000   0.661836   0.000000
    6  N  1  Z   -0.660895   0.000000   0.000000   0.000000   0.000000
    7  N  1  X    0.000000   0.000000   0.774708   0.000000  -0.781468
    8  N  1  Y    0.000000   0.774708   0.000000  -0.781468   0.000000
    9  N  1  Z    0.743390   0.000000   0.000000   0.000000   0.000000
   10  N  2  S    0.006856   0.000000   0.000000   0.000000   0.000000
   11  N  2  S   -0.070015   0.000000   0.000000   0.000000   0.000000
   12  N  2  S    0.063595   0.000000   0.000000   0.000000   0.000000
   13  N  2  X    0.000000   0.000000  -0.660866   0.000000  -0.661836
   14  N  2  Y    0.000000  -0.660866   0.000000  -0.661836   0.000000
   15  N  2  Z    0.660895   0.000000   0.000000   0.000000   0.000000
   16  N  2  X    0.000000   0.000000   0.774708   0.000000   0.781468
   17  N  2  Y    0.000000   0.774708   0.000000   0.781468   0.000000
   18  N  2  Z   -0.743390   0.000000   0.000000   0.000000   0.000000

                     16         17         18
                    0.6942     0.9005     0.9155
                     A1         A1         A1  
    1  N  1  S   -0.009825  -0.090981  -0.090176
    2  N  1  S    0.109089   1.107060   1.105178
    3  N  1  S   -0.103275  -1.100436  -1.102261
    4  N  1  X    0.000000   0.000000   0.000000
    5  N  1  Y    0.000000   0.000000   0.000000
    6  N  1  Z   -0.662863  -0.042159   0.068665
    7  N  1  X    0.000000   0.000000   0.000000
    8  N  1  Y    0.000000   0.000000   0.000000
    9  N  1  Z    0.805154   0.060954  -0.094259
   10  N  2  S    0.009825  -0.090981   0.090176
   11  N  2  S   -0.109089   1.107060  -1.105178
   12  N  2  S    0.103275  -1.100436   1.102261
   13  N  2  X    0.000000   0.000000   0.000000
   14  N  2  Y    0.000000   0.000000   0.000000
   15  N  2  Z   -0.662863   0.042159   0.068665
   16  N  2  X    0.000000   0.000000   0.000000
   17  N  2  Y    0.000000   0.000000   0.000000
   18  N  2  Z    0.805154  -0.060954  -0.094259
 ...... END OF RHF CALCULATION ......
 CPU     0: STEP CPU TIME=     0.01 TOTAL CPU TIME=        0.0 (    0.0 MIN)
 TOTAL WALL CLOCK TIME=        0.1 SECONDS, CPU UTILIZATION IS  55.56%

     ----------------------------------------------------------------
     PROPERTY VALUES FOR THE RHF   SELF-CONSISTENT FIELD WAVEFUNCTION
     ----------------------------------------------------------------

          -----------------
          ENERGY COMPONENTS
          -----------------

         WAVEFUNCTION NORMALIZATION =       1.0000000000

                ONE ELECTRON ENERGY =    -158.8171462676
                TWO ELECTRON ENERGY =      44.7604520987
           NUCLEAR REPULSION ENERGY =       6.1737345745
                                      ------------------
                       TOTAL ENERGY =    -107.8829595945

 ELECTRON-ELECTRON POTENTIAL ENERGY =      44.7604520987
  NUCLEUS-ELECTRON POTENTIAL ENERGY =    -266.3243433024
   NUCLEUS-NUCLEUS POTENTIAL ENERGY =       6.1737345745
                                      ------------------
             TOTAL POTENTIAL ENERGY =    -215.3901566293
               TOTAL KINETIC ENERGY =     107.5071970348
                 VIRIAL RATIO (V/T) =       2.0034952317

  ...... PI ENERGY ANALYSIS ......

 ENERGY ANALYSIS:
            FOCK ENERGY=    -69.2962417009
          BARE H ENERGY=   -158.8171462676
     ELECTRONIC ENERGY =   -114.0566939843
         KINETIC ENERGY=    107.5071970348
          N-N REPULSION=      6.1737345745
           TOTAL ENERGY=   -107.8829594098
        SIGMA PART(1+2)=   -102.5348844987
               (K,V1,2)=    101.0540195646   -238.0908093089     34.5019052456
           PI PART(1+2)=    -11.5218094856
               (K,V1,2)=      6.4531774702    -28.2335339935     10.2585470377
  SIGMA SKELETON, ERROR=    -96.3611499242     -0.0000000000
             MIXED PART= 0.00000E+00 0.00000E+00 0.00000E+00 0.00000E+00
 ...... END OF PI ENERGY ANALYSIS ......

          ---------------------------------------
          MULLIKEN AND LOWDIN POPULATION ANALYSES
          ---------------------------------------

               ----- POPULATIONS IN EACH AO -----
                             MULLIKEN      LOWDIN
              1  N  1  S      2.00012     1.99715
              2  N  1  S      1.06560     1.03531
              3  N  1  S      0.93419     0.96742
              4  N  1  X      0.66671     0.64140
              5  N  1  Y      0.66671     0.64140
              6  N  1  Z      0.64627     0.62182
              7  N  1  X      0.33329     0.35860
              8  N  1  Y      0.33329     0.35860
              9  N  1  Z      0.35381     0.37830
             10  N  2  S      2.00012     1.99715
             11  N  2  S      1.06560     1.03531
             12  N  2  S      0.93419     0.96742
             13  N  2  X      0.66671     0.64140
             14  N  2  Y      0.66671     0.64140
             15  N  2  Z      0.64627     0.62182
             16  N  2  X      0.33329     0.35860
             17  N  2  Y      0.33329     0.35860
             18  N  2  Z      0.35381     0.37830

          ----- MULLIKEN ATOMIC OVERLAP POPULATIONS -----
          (OFF-DIAGONAL ELEMENTS NEED TO BE MULTIPLIED BY 2)

             1           2

    1    6.9867420
    2    0.0132580   6.9867420

          TOTAL MULLIKEN AND LOWDIN ATOMIC POPULATIONS
       ATOM         MULL.POP.    CHARGE          LOW.POP.     CHARGE
    1 N             7.000000   -0.000000         7.000000   -0.000000
    2 N             7.000000    0.000000         7.000000    0.000000

          ---------------------
          ELECTROSTATIC MOMENTS
          ---------------------

 POINT   1           X           Y           Z (BOHR)    CHARGE
                 0.000000    0.000000    3.968425        0.00 (A.U.)
         DX          DY          DZ         /D/  (DEBYE)
     0.000000    0.000000    0.000000    0.000000
 ...... END OF PROPERTY EVALUATION ......
 CPU     0: STEP CPU TIME=     0.01 TOTAL CPU TIME=        0.1 (    0.0 MIN)
 TOTAL WALL CLOCK TIME=        0.1 SECONDS, CPU UTILIZATION IS  50.00%

 DETERMINANT CI OPTIONS   NRNFG   NPFLG
 INTEGRAL TRANSFORMATION    1       0
 DIAGONALIZE HAMILTONIAN    1       0
 FORM 1E- DENSITY MATRIX    1       0
 FORM 2E- DENSITY MATRIX    0       0

     --------------------------------------------------
          AMES LABORATORY DETERMINANTAL FULL CI
     PROGRAM WRITTEN BY JOE IVANIC AND KLAUS RUEDENBERG
     --------------------------------------------------

 THE POINT GROUP                  =   C2V     
 THE STATE SYMMETRY               =   A1      
 NUMBER OF CORE ORBITALS          =    2
 NUMBER OF ACTIVE ORBITALS        =   16
 NUMBER OF ALPHA ELECTRONS        =    7 (   5 ACTIVE)
 NUMBER OF BETA ELECTRONS         =    7 (   5 ACTIVE)
 NUMBER OF OCCUPIED ORBITALS      =   18
 NUMBER OF CI STATES REQUESTED    =    1
 NUMBER OF CI STARTING VECTORS    =    6
 MAX. NO. OF CI EXPANSION VECTORS =   12
 SIZE OF INITIAL CI GUESS MATRIX  =  300
 MAX. NO. OF CI ITERS/STATE       =  100
 CI DIAGONALIZATION CRITERION     = 1.00E-06
 CI PROPERTIES WILL BE FOUND FOR ROOT NUMBER   1
 1E- DENSITY MATRIX OPTIONS ARE 1

 CORRELATION ENERGY ANALYSIS      =    F

 SYMMETRIES FOR THE   2 CORE,  16 ACTIVE ARE

     CORE= A1    A1  

   ACTIVE= A1    A1    A1    B1    B2    B1    B2    A1    A1    B2  
           B1    B2    B1    A1    A1    A1  

     --------------------------------------------
     PARTIAL TWO ELECTRON INTEGRAL TRANSFORMATION
     --------------------------------------------

 NUMBER OF CORE MOLECULAR ORBITALS     =    2
 NUMBER OF OCCUPIED MOLECULAR ORBITALS =   18
 TOTAL NUMBER OF MOLECULAR ORBITALS    =   18
 TOTAL NUMBER OF ATOMIC ORBITALS       =   18
 THRESHOLD FOR KEEPING TRANSFORMED 2E- INTEGRALS = 1.000E-09

 -------------------------------     ------------------------------
 DISTRIBUTED DATA TRANSFORMATION     PROGRAM WRITTEN BY G. FLETCHER
 -------------------------------     ------------------------------

 THE DISTRIBUTED MEMORY REQUIRED FOR THIS STEP IS MEMDDI=         1 MWORDS
 CREATING DISTRIBUTED STORAGE FOR [OCC OCC|OCC OCC] INTEGRALS
 DDI: Creating Array [0] - 171 x 171 = 29241 words.
 CREATING WORKSPACE OF SIZE VVOO
 DDI: Creating Array [1] - 171 x 171 = 29241 words.
 FOR   12 PROCESSORS, THE REPLICATED MEMORY NEEDED IS       58507 WORDS.

      DIRECT 4-INDEX TRANSFORMATION 
      SCHWARZ INEQUALITY TEST SKIPPED          0 INTEGRAL BLOCKS
 ----- FROZEN CORE ENERGY =       -92.4880347507
 ... END OF INTEGRAL TRANSFORMATION ...
 CPU     0: STEP CPU TIME=     0.00 TOTAL CPU TIME=        0.1 (    0.0 MIN)
 TOTAL WALL CLOCK TIME=        0.2 SECONDS, CPU UTILIZATION IS  37.50%

     --------------------------------------------------
          AMES LABORATORY DETERMINANTAL FULL CI
     PROGRAM WRITTEN BY JOE IVANIC AND KLAUS RUEDENBERG
     --------------------------------------------------

 THE NUMBER OF DETERMINANTS HAVING SPACE SYMMETRY A1 
 IN POINT GROUP C2V  WITH SZ=  0.0 IS        4777056
 THE DETERMINANT FULL CI REQUIRES       119865995 WORDS
 INITIAL CI VECTOR GUESS TIME  :          1.9
 INITIAL FULL CI ITERATION TIME:          5.7

 ITERATION      ENERGY           GRADIENT
     0     -108.7411963147     0.45925361
     1     -108.8423372905     0.18647190
     2     -108.8548100165     0.07019534
     3     -108.8563849483     0.03057417
     4     -108.8566829487     0.01535103
     5     -108.8567551822     0.00632627
     6     -108.8567662764     0.00223796
     7     -108.8567674099     0.00143639
     8     -108.8567679231     0.00101964
     9     -108.8567684518     0.00070781
    10     -108.8567685989     0.00045306
    11     -108.8567686486     0.00028103
    12     -108.8567686660     0.00016880
    13     -108.8567686703     0.00009905
    14     -108.8567686730     0.00005992
    15     -108.8567686742     0.00004198
    16     -108.8567686747     0.00002784
    17     -108.8567686751     0.00002409
    18     -108.8567686752     0.00002108
    19     -108.8567686753     0.00001542
    20     -108.8567686754     0.00001317
    21     -108.8567686754     0.00001299
    22     -108.8567686755     0.00001129
    23     -108.8567686755     0.00001186
    24     -108.8567686756     0.00001929
    25     -108.8567686757     0.00002087
    26     -108.8567686760     0.00003213
    27     -108.8567686768     0.00006137
    28     -108.8567686790     0.00010409
    29     -108.8567686870     0.00018833
    30     -108.8567687038     0.00027326
    31     -108.8567687326     0.00043051
    32     -108.8567701914     0.00501826
    33     -108.8567803743     0.00464130
    34     -108.8567859917     0.00270207
    35     -108.8567879288     0.00184042
    36     -108.8567887861     0.00119430
    37     -108.8567891064     0.00075001
    38     -108.8567892961     0.00060022
    39     -108.8567894141     0.00046359
    40     -108.8567894613     0.00028454
    41     -108.8567894812     0.00016235
    42     -108.8567894862     0.00012645
    43     -108.8567894890     0.00009248
    44     -108.8567894917     0.00006611
    45     -108.8567894929     0.00004926
    46     -108.8567894934     0.00002717
    47     -108.8567894936     0.00001771
    48     -108.8567894937     0.00001348
    49     -108.8567894938     0.00000823
    50     -108.8567894938     0.00000649
    51     -108.8567894938     0.00000505
    52     -108.8567894938     0.00000312
    53     -108.8567894938     0.00000182
    54     -108.8567894938     0.00000149
    55     -108.8567894938     0.00000106
    56     -108.8567894938     0.00000076

 CONVERGED STATE    1 ENERGY=     -108.8567894938 IN   56 ITERS

 ALL STATES CONVERGED.

 CI EIGENVECTORS WILL BE LABELED IN GROUP=C2V     
 PRINTING CI COEFFICIENTS LARGER THAN  0.050000

 STATE   1  ENERGY=      -108.8567894938  S=  0.00  SZ=  0.00  SPACE SYM=A1  

      ALPHA       |      BETA        | COEFFICIENT
------------------|------------------|------------
 1111100000000000 | 1111100000000000 |   0.2440361
 1110110000000000 | 1110110000000000 |  -0.2431465
 1111001000000000 | 1111001000000000 |  -0.2431465
 1110011000000000 | 1110011000000000 |   0.2422628
 1101100100000000 | 1101100100000000 |  -0.2375790
 1101001100000000 | 1101001100000000 |   0.2367301
 1100110100000000 | 1100110100000000 |   0.2367301
 1100011100000000 | 1100011100000000 |  -0.2358871
 1111010000000000 | 1110101000000000 |   0.1620959
 1110101000000000 | 1111010000000000 |   0.1620959
 1101110000000000 | 1110100100000000 |   0.1601731
 1110100100000000 | 1101110000000000 |   0.1601731
 1111000100000000 | 1101101000000000 |  -0.1601731
 1101101000000000 | 1111000100000000 |  -0.1601731
 1101011000000000 | 1110001100000000 |   0.1595957
 1110001100000000 | 1101011000000000 |   0.1595957
 1110010100000000 | 1100111000000000 |  -0.1595957
 1100111000000000 | 1110010100000000 |  -0.1595957
 1101010100000000 | 1100101100000000 |  -0.1578183
 1100101100000000 | 1101010100000000 |  -0.1578183
 1111001000000000 | 1110110000000000 |   0.0810499
 1110110000000000 | 1111001000000000 |   0.0810499
 1111100000000000 | 1110011000000000 |   0.0810459
 1110011000000000 | 1111100000000000 |   0.0810459
 1101100100000000 | 1111001000000000 |  -0.0801028
 1111001000000000 | 1101100100000000 |  -0.0801028
 1110110000000000 | 1101100100000000 |   0.0801028
 1101100100000000 | 1110110000000000 |   0.0801028
 1101001100000000 | 1111100000000000 |   0.0800702
 1111100000000000 | 1101001100000000 |   0.0800702
 1111100000000000 | 1100110100000000 |  -0.0800702
 1100110100000000 | 1111100000000000 |  -0.0800702
 1100110100000000 | 1110011000000000 |  -0.0798141
 1110011000000000 | 1100110100000000 |  -0.0798141
 1110011000000000 | 1101001100000000 |   0.0798141
 1101001100000000 | 1110011000000000 |   0.0798141
 1100011100000000 | 1110110000000000 |   0.0797816
 1110110000000000 | 1100011100000000 |   0.0797816
 1111001000000000 | 1100011100000000 |  -0.0797816
 1100011100000000 | 1111001000000000 |  -0.0797816
 1101001100000000 | 1100110100000000 |  -0.0789111
 1100110100000000 | 1101001100000000 |  -0.0789111
 1101100100000000 | 1100011100000000 |  -0.0789072
 1100011100000000 | 1101100100000000 |  -0.0789072
 ..... DONE WITH DETERMINANT CI COMPUTATION .....
 CPU     0: STEP CPU TIME=   147.27 TOTAL CPU TIME=      147.3 (    2.5 MIN)
 TOTAL WALL CLOCK TIME=      187.6 SECONDS, CPU UTILIZATION IS  78.55%

     ---------------------------
     ONE PARTICLE DENSITY MATRIX
     ---------------------------

 DENSITY MATRIX WILL BE SAVED FOR   1-TH STATE WITH S= 0.00

 CI EIGENSTATE   1 TOTAL ENERGY =     -108.8567894938

          NATURAL ORBITALS IN ATOMIC ORBITAL BASIS
          ----------------------------------------

                      1          2          3          4          5
                    2.0000     2.0000     1.9850     1.9849     1.0156
                     A1         A1         A1         A1         A1  
    1  N  1  S    0.706972  -0.706975  -0.170974  -0.171102  -0.000373
    2  N  1  S   -0.000116   0.000109   0.381302   0.382425   0.001936
    3  N  1  S    0.000908  -0.000880   0.386769   0.385957  -0.000308
    4  N  1  X    0.000000   0.000000   0.000000   0.000000   0.000000
    5  N  1  Y    0.000000   0.000000   0.000000   0.000000   0.000000
    6  N  1  Z    0.000088  -0.000052  -0.000866   0.000862  -0.555973
    7  N  1  X    0.000000   0.000000   0.000000   0.000000   0.000000
    8  N  1  Y    0.000000   0.000000   0.000000   0.000000   0.000000
    9  N  1  Z   -0.000021   0.000039   0.001170  -0.001232  -0.229793
   10  N  2  S    0.706972   0.706975  -0.170974   0.171102  -0.000373
   11  N  2  S   -0.000116  -0.000109   0.381302  -0.382425   0.001936
   12  N  2  S    0.000908   0.000880   0.386769  -0.385957  -0.000308
   13  N  2  X    0.000000   0.000000   0.000000   0.000000   0.000000
   14  N  2  Y    0.000000   0.000000   0.000000   0.000000   0.000000
   15  N  2  Z   -0.000088  -0.000052   0.000866   0.000862   0.555973
   16  N  2  X    0.000000   0.000000   0.000000   0.000000   0.000000
   17  N  2  Y    0.000000   0.000000   0.000000   0.000000   0.000000
   18  N  2  Z    0.000021   0.000039  -0.001170  -0.001232   0.229793

                      6          7          8          9         10
                    0.9980     0.9980     0.9930     0.9930     0.9755
                     B1         B2         B2         B1         A1  
    1  N  1  S    0.000000   0.000000   0.000000   0.000000  -0.000451
    2  N  1  S    0.000000   0.000000   0.000000   0.000000   0.001838
    3  N  1  S    0.000000   0.000000   0.000000   0.000000  -0.000243
    4  N  1  X    0.559453   0.000000   0.000000  -0.560578   0.000000
    5  N  1  Y    0.000000   0.559453  -0.560578   0.000000   0.000000
    6  N  1  Z    0.000000   0.000000   0.000000   0.000000   0.563979
    7  N  1  X    0.228151   0.000000   0.000000  -0.227308   0.000000
    8  N  1  Y    0.000000   0.228151  -0.227308   0.000000   0.000000
    9  N  1  Z    0.000000   0.000000   0.000000   0.000000   0.225647
   10  N  2  S    0.000000   0.000000   0.000000   0.000000   0.000451
   11  N  2  S    0.000000   0.000000   0.000000   0.000000  -0.001838
   12  N  2  S    0.000000   0.000000   0.000000   0.000000   0.000243
   13  N  2  X    0.559453   0.000000   0.000000   0.560578   0.000000
   14  N  2  Y    0.000000   0.559453   0.560578   0.000000   0.000000
   15  N  2  Z    0.000000   0.000000   0.000000   0.000000   0.563979
   16  N  2  X    0.228151   0.000000   0.000000   0.227308   0.000000
   17  N  2  Y    0.000000   0.228151   0.227308   0.000000   0.000000
   18  N  2  Z    0.000000   0.000000   0.000000   0.000000   0.225647

                     11         12         13         14         15
                    0.0109     0.0107     0.0063     0.0059     0.0059
                     A1         A1         A1         B2         B1  
    1  N  1  S   -0.095414  -0.095226  -0.004906   0.000000   0.000000
    2  N  1  S    1.116973   1.119454   0.070377   0.000000   0.000000
    3  N  1  S   -1.090444  -1.095117  -0.074774   0.000000   0.000000
    4  N  1  X    0.000000   0.000000   0.000000   0.000000  -0.615132
    5  N  1  Y    0.000000   0.000000   0.000000  -0.615132   0.000000
    6  N  1  Z    0.033841  -0.029108  -0.609803   0.000000   0.000000
    7  N  1  X    0.000000   0.000000   0.000000   0.000000   0.797223
    8  N  1  Y    0.000000   0.000000   0.000000   0.797223   0.000000
    9  N  1  Z   -0.037334   0.033356   0.771151   0.000000   0.000000
   10  N  2  S   -0.095414   0.095226  -0.004906   0.000000   0.000000
   11  N  2  S    1.116973  -1.119454   0.070377   0.000000   0.000000
   12  N  2  S   -1.090444   1.095117  -0.074774   0.000000   0.000000
   13  N  2  X    0.000000   0.000000   0.000000   0.000000  -0.615132
   14  N  2  Y    0.000000   0.000000   0.000000  -0.615132   0.000000
   15  N  2  Z   -0.033841  -0.029108   0.609803   0.000000   0.000000
   16  N  2  X    0.000000   0.000000   0.000000   0.000000   0.797223
   17  N  2  Y    0.000000   0.000000   0.000000   0.797223   0.000000
   18  N  2  Z    0.037334   0.033356  -0.771151   0.000000   0.000000

                     16         17         18
                    0.0058     0.0058     0.0055
                     B2         B1         A1  
    1  N  1  S    0.000000   0.000000   0.004208
    2  N  1  S    0.000000   0.000000  -0.062278
    3  N  1  S    0.000000   0.000000   0.067351
    4  N  1  X    0.000000   0.616218   0.000000
    5  N  1  Y    0.616218   0.000000   0.000000
    6  N  1  Z    0.000000   0.000000  -0.621270
    7  N  1  X    0.000000  -0.803813   0.000000
    8  N  1  Y   -0.803813   0.000000   0.000000
    9  N  1  Z    0.000000   0.000000   0.831447
   10  N  2  S    0.000000   0.000000  -0.004208
   11  N  2  S    0.000000   0.000000   0.062278
   12  N  2  S    0.000000   0.000000  -0.067351
   13  N  2  X    0.000000  -0.616218   0.000000
   14  N  2  Y   -0.616218   0.000000   0.000000
   15  N  2  Z    0.000000   0.000000  -0.621270
   16  N  2  X    0.000000   0.803813   0.000000
   17  N  2  Y    0.803813   0.000000   0.000000
   18  N  2  Z    0.000000   0.000000   0.831447
 ..... DONE WITH ONE PARTICLE DENSITY MATRIX .....
 CPU     0: STEP CPU TIME=     0.95 TOTAL CPU TIME=      148.3 (    2.5 MIN)
 TOTAL WALL CLOCK TIME=      188.5 SECONDS, CPU UTILIZATION IS  78.65%

     --------------------------------------------------------
     ALDET CI PROPERTIES...FOR THE WAVEFUNCTION OF STATE    1
               USING THE EXPECTATION VALUE DENSITY
     --------------------------------------------------------

          -----------------
          ENERGY COMPONENTS
          -----------------

         WAVEFUNCTION NORMALIZATION =       1.0000000000

                ONE ELECTRON ENERGY =    -160.0180258719
                TWO ELECTRON ENERGY =      44.9875018036
           NUCLEAR REPULSION ENERGY =       6.1737345745
                                      ------------------
                       TOTAL ENERGY =    -108.8567894938

 ELECTRON-ELECTRON POTENTIAL ENERGY =      44.9875018036
  NUCLEUS-ELECTRON POTENTIAL ENERGY =    -268.7298115484
   NUCLEUS-NUCLEUS POTENTIAL ENERGY =       6.1737345745
                                      ------------------
             TOTAL POTENTIAL ENERGY =    -217.5685751703
               TOTAL KINETIC ENERGY =     108.7117856765
                 VIRIAL RATIO (V/T) =       2.0013338371

          ---------------------------------------
          MULLIKEN AND LOWDIN POPULATION ANALYSES
          ---------------------------------------

               ----- POPULATIONS IN EACH AO -----
                             MULLIKEN      LOWDIN
              1  N  1  S      2.00012     1.99634
              2  N  1  S      0.98049     0.98290
              3  N  1  S      1.01514     1.01650
              4  N  1  X      0.75974     0.72078
              5  N  1  Y      0.75974     0.72078
              6  N  1  Z      0.75952     0.72055
              7  N  1  X      0.24167     0.28062
              8  N  1  Y      0.24167     0.28062
              9  N  1  Z      0.24193     0.28090
             10  N  2  S      2.00012     1.99634
             11  N  2  S      0.98049     0.98290
             12  N  2  S      1.01514     1.01650
             13  N  2  X      0.75974     0.72078
             14  N  2  Y      0.75974     0.72078
             15  N  2  Z      0.75952     0.72055
             16  N  2  X      0.24167     0.28062
             17  N  2  Y      0.24167     0.28062
             18  N  2  Z      0.24193     0.28090

          ----- MULLIKEN ATOMIC OVERLAP POPULATIONS -----
          (OFF-DIAGONAL ELEMENTS NEED TO BE MULTIPLIED BY 2)

             1           2

    1    6.9997196
    2    0.0002804   6.9997196

          TOTAL MULLIKEN AND LOWDIN ATOMIC POPULATIONS
       ATOM         MULL.POP.    CHARGE          LOW.POP.     CHARGE
    1 N             7.000000    0.000000         7.000000    0.000000
    2 N             7.000000    0.000000         7.000000    0.000000

          ---------------------
          ELECTROSTATIC MOMENTS
          ---------------------

 POINT   1           X           Y           Z (BOHR)    CHARGE
                 0.000000    0.000000    3.968425        0.00 (A.U.)
         DX          DY          DZ         /D/  (DEBYE)
     0.000000    0.000000    0.000000    0.000000
 ...... END OF PROPERTY EVALUATION ......
 CPU     0: STEP CPU TIME=     0.00 TOTAL CPU TIME=      148.3 (    2.5 MIN)
 TOTAL WALL CLOCK TIME=      189.0 SECONDS, CPU UTILIZATION IS  78.46%
             119866895  WORDS OF DYNAMIC MEMORY USED
 EXECUTION OF GAMESS TERMINATED NORMALLY Thu Jan 17 19:01:13 2019
 DDI: 305760 bytes (0.3 MB / 0 MWords) used by master data server.

 ----------------------------------------
 CPU timing information for all processes
 ========================================
 0: 139.04 + 9.428 = 148.432
 1: 136.804 + 11.212 = 148.16
 2: 137.868 + 10.04 = 147.872
 3: 137.20 + 10.952 = 147.972
 4: 135.216 + 10.964 = 146.180
 5: 136.924 + 10.608 = 147.532
 6: 136.20 + 10.04 = 146.24
 7: 136.664 + 9.32 = 145.696
 8: 135.524 + 9.824 = 145.348
 9: 136.116 + 10.204 = 146.320
 10: 135.628 + 10.96 = 145.724
 11: 135.784 + 8.896 = 144.680
 12: 0.496 + 5.716 = 6.212
 13: 0.00 + 0.08 = 0.08
 14: 0.00 + 0.08 = 0.08
 15: 0.00 + 0.08 = 0.08
 16: 0.04 + 0.00 = 0.04
 17: 0.04 + 0.00 = 0.04
 18: 0.04 + 0.00 = 0.04
 19: 0.04 + 0.00 = 0.04
 20: 0.04 + 0.00 = 0.04
 21: 0.04 + 0.00 = 0.04
 22: 0.00 + 0.04 = 0.04
 23: 0.00 + 0.04 = 0.04
 ----------------------------------------
 ddikick.x: exited gracefully.
unset echo
----- accounting info -----
Files used on the master node localhost were:
-rw-rw-r-- 1 maho maho    13429 Jan 17 19:01 ./N2.SV/4.2/N2.SV.fullCI.4.2.gamess.dat
-rw------- 1 maho maho     1813 Jan 17 18:58 ./N2.SV/4.2/N2.SV.fullCI.4.2.gamess.F05
-rw-rw-r-- 1 maho maho   180016 Jan 17 18:58 ./N2.SV/4.2/N2.SV.fullCI.4.2.gamess.F08
-rw-rw-r-- 1 maho maho     1376 Jan 17 18:58 ./N2.SV/4.2/N2.SV.fullCI.4.2.gamess.F09
-rw-rw-r-- 1 maho maho  1865040 Jan 17 19:01 ./N2.SV/4.2/N2.SV.fullCI.4.2.gamess.F10
-rw-rw-r-- 1 maho maho 38216480 Jan 17 19:01 ./N2.SV/4.2/N2.SV.fullCI.4.2.gamess.F12
-rw------- 1 maho maho     1813 Jan 17 18:58 ./N2.SV/4.2/N2.SV.fullCI.4.2.gamess.inp
-rw-rw-r-- 1 maho maho    49565 Jan 17 19:01 ./N2.SV/4.2/N2.SV.fullCI.4.2.gamess.log
ls: No match.
ls: No match.
ls: No match.
Thu Jan 17 19:01:16 JST 2019
0.0u 0.0s 3:12.42 0.0% 0+0k 0+8io 0pf+0w
