----- GAMESS execution script 'rungms' -----
This job is running on host localhost
under operating system Linux at Thu Jan 17 19:08:22 JST 2019
Available scratch disk space (Kbyte units) at beginning of the job is
Filesystem     1K-blocks      Used Available Use% Mounted on
/dev/sda1      895286904 141747512 708038364  17% /
GAMESS temporary binary files will be written to .
GAMESS supplementary output files will be written to .
Copying input file N2.SV/4.5/N2.SV.fullCI.4.5.gamess.inp to your run's scratch directory...
cp N2.SV/4.5/N2.SV.fullCI.4.5.gamess.inp ./N2.SV/4.5/N2.SV.fullCI.4.5.gamess.F05
unset echo
/work/pubchem/pm6/pkg/gamess_intel/ddikick.x /work/pubchem/pm6/pkg/gamess_intel/gamess.00.x N2.SV/4.5/N2.SV.fullCI.4.5.gamess -ddi 12 12 localhost localhost localhost localhost localhost localhost localhost localhost localhost localhost localhost localhost -scr .

 Distributed Data Interface kickoff program.
 Initiating 12 compute processes on 12 nodes to run the following command:
 /work/pubchem/pm6/pkg/gamess_intel/gamess.00.x N2.SV/4.5/N2.SV.fullCI.4.5.gamess 

          ******************************************************
          *         GAMESS VERSION =  5 DEC 2014 (R1)          *
          *             FROM IOWA STATE UNIVERSITY             *
          * M.W.SCHMIDT, K.K.BALDRIDGE, J.A.BOATZ, S.T.ELBERT, *
          *   M.S.GORDON, J.H.JENSEN, S.KOSEKI, N.MATSUNAGA,   *
          *          K.A.NGUYEN, S.J.SU, T.L.WINDUS,           *
          *       TOGETHER WITH M.DUPUIS, J.A.MONTGOMERY       *
          *         J.COMPUT.CHEM.  14, 1347-1363(1993)        *
          **************** 64 BIT INTEL VERSION ****************

  SINCE 1993, STUDENTS AND POSTDOCS WORKING AT IOWA STATE UNIVERSITY
  AND ALSO IN THEIR VARIOUS JOBS AFTER LEAVING ISU HAVE MADE IMPORTANT
  CONTRIBUTIONS TO THE CODE:
     IVANA ADAMOVIC, CHRISTINE AIKENS, YURI ALEXEEV, POOJA ARORA,
     ANDREY ASADCHEV, ROB BELL, PRADIPTA BANDYOPADHYAY, JONATHAN BENTZ,
     BRETT BODE, KURT BRORSEN, CALEB CARLIN, GALINA CHABAN, WEI CHEN,
     CHEOL HO CHOI, PAUL DAY, ALBERT DEFUSCO, NUWAN DESILVA, TIM DUDLEY,
     DMITRI FEDOROV, GRAHAM FLETCHER, MARK FREITAG, KURT GLAESEMANN,
     DAN KEMP, GRANT MERRILL, NORIYUKI MINEZAWA, JONATHAN MULLIN,
     TAKESHI NAGATA, SEAN NEDD, HEATHER NETZLOFF, BOSILJKA NJEGIC, RYAN OLSON,
     MIKE PAK, SPENCER PRUITT, LUKE ROSKOP, JIM SHOEMAKER, LYUDMILA SLIPCHENKO,
     TONY SMITH, SAROM SOK, JIE SONG, TETSUYA TAKETSUGU, SIMON WEBB,
     PENG XU, SOOHAENG YOO, FEDERICO ZAHARIEV

  ADDITIONAL CODE HAS BEEN PROVIDED BY COLLABORATORS IN OTHER GROUPS:
     IOWA STATE UNIVERSITY:
          JOE IVANIC, AARON WEST, LAIMUTIS BYTAUTAS, KLAUS RUEDENBERG
     UNIVERSITY OF TOKYO: KIMIHIKO HIRAO, TAKAHITO NAKAJIMA,
          TAKAO TSUNEDA, MUNEAKI KAMIYA, SUSUMU YANAGISAWA,
          KIYOSHI YAGI, MAHITO CHIBA, SEIKEN TOKURA, NAOAKI KAWAKAMI
     UNIVERSITY OF AARHUS: FRANK JENSEN
     UNIVERSITY OF IOWA: VISVALDAS KAIRYS, HUI LI
     NATIONAL INST. OF STANDARDS AND TECHNOLOGY: WALT STEVENS, DAVID GARMER
     UNIVERSITY OF PISA: BENEDETTA MENNUCCI, JACOPO TOMASI
     UNIVERSITY OF MEMPHIS: HENRY KURTZ, PRAKASHAN KORAMBATH
     UNIVERSITY OF ALBERTA: TOBY ZENG, MARIUSZ KLOBUKOWSKI
     UNIVERSITY OF NEW ENGLAND: MARK SPACKMAN
     MIE UNIVERSITY: HIROAKI UMEDA
     NAT. INST. OF ADVANCED INDUSTRIAL SCIENCE AND TECHNOLOGY: KAZUO KITAURA
     MICHIGAN STATE UNIVERSITY:
          KAROL KOWALSKI, MARTA WLOCH, JEFFREY GOUR, JESSE LUTZ,
          WEI LI, PIOTR PIECUCH
     UNIVERSITY OF SILESIA: MONIKA MUSIAL, STANISLAW KUCHARSKI
     FACULTES UNIVERSITAIRES NOTRE-DAME DE LA PAIX:
          OLIVIER QUINET, BENOIT CHAMPAGNE
     UNIVERSITY OF CALIFORNIA - SANTA BARBARA: BERNARD KIRTMAN
     INSTITUTE FOR MOLECULAR SCIENCE:
          KAZUYA ISHIMURA, MICHIO KATOUDA, AND SHIGERU NAGASE
     UNIVERSITY OF NOTRE DAME: ANNA POMOGAEVA, DAN CHIPMAN
     KYUSHU UNIVERSITY:
          HARUYUKI NAKANO,
          FENG LONG GU, JACEK KORCHOWIEC, MARCIN MAKOWSKI, AND YURIKO AOKI,
          HIROTOSHI MORI AND EISAKU MIYOSHI
     PENNSYLVANIA STATE UNIVERSITY:
          TZVETELIN IORDANOV, CHET SWALINA, JONATHAN SKONE,
          SHARON HAMMES-SCHIFFER
     WASEDA UNIVERSITY:
          MASATO KOBAYASHI, TOMOKO AKAMA, TSUGUKI TOUMA,
          TAKESHI YOSHIKAWA, YASUHIRO IKABATA, HIROMI NAKAI
     NANJING UNIVERSITY: SHUHUA LI
     UNIVERSITY OF NEBRASKA:
          PEIFENG SU, DEJUN SI, NANDUN THELLAMUREGE, YALI WANG, HUI LI
     UNIVERSITY OF ZURICH: ROBERTO PEVERATI, KIM BALDRIDGE
     N. COPERNICUS UNIVERSITY AND JACKSON STATE UNIVERSITY:
          MARIA BARYSZ
     UNIVERSITY OF COPENHAGEN: CASPER STEINMANN
     TOKYO INSTITUTE OF TECHNOLOGY: HIROYA NAKATA
     NAGOYA UNIVERSITY: YOSHIO NISHIMOTO, STEPHAN IRLE


 PARALLEL VERSION RUNNING ON       12 PROCESSORS IN       12 NODES.

 EXECUTION OF GAMESS BEGUN Thu Jan 17 19:08:22 2019

            ECHO OF THE FIRST FEW INPUT CARDS -
 INPUT CARD> $CONTRL SCFTYP=RHF CITYP=ALDET $END                                            
 INPUT CARD> $GUESS GUESS=HUCKEL $END                                                       
 INPUT CARD> $SYSTEM MWORDS=300 $END                                                        
 INPUT CARD> $CIDET SZ=0 GROUP=C2V NCORE=2 NACT=16 NELS=10 NSTGSS=6 $END                    
 INPUT CARD> $DATA                                                                          
 INPUT CARD>N2...HF...Double-zeta basis                                                     
 INPUT CARD>Cnv   2                                                                         
 INPUT CARD>                                                                                
 INPUT CARD>N     7.0    0.0      0.0     0.0                                               
 INPUT CARD>S   7                                                                           
 INPUT CARD>  1   5909.0000000              0.0011900                                       
 INPUT CARD>  2    887.5000000              0.0090990                                       
 INPUT CARD>  3    204.7000000              0.0441450                                       
 INPUT CARD>  4     59.8400000              0.1504640                                       
 INPUT CARD>  5     20.0000000              0.3567410                                       
 INPUT CARD>  6      7.1930000              0.4465330                                       
 INPUT CARD>  7      2.6860000              0.1456030                                       
 INPUT CARD>S   2                                                                           
 INPUT CARD>  1      7.1930000             -0.1604050                                       
 INPUT CARD>  2      0.7000000              1.0582150                                       
 INPUT CARD>S   1                                                                           
 INPUT CARD>  1      0.2133000              1.0000000                                       
 INPUT CARD>P   4                                                                           
 INPUT CARD>  1     26.7900000              0.0182540                                       
 INPUT CARD>  2      5.9560000              0.1164610                                       
 INPUT CARD>  3      1.7070000              0.3901780                                       
 INPUT CARD>  4      0.5314000              0.6371020                                       
 INPUT CARD>P   1                                                                           
 INPUT CARD>  1      0.1654000              1.0000000                                       
 INPUT CARD>                                                                                
 INPUT CARD>N     7.0    0.0      0.0     4.5                                               
 INPUT CARD>S   7                                                                           
 INPUT CARD>  1   5909.0000000              0.0011900                                       
 INPUT CARD>  2    887.5000000              0.0090990                                       
 INPUT CARD>  3    204.7000000              0.0441450                                       
 INPUT CARD>  4     59.8400000              0.1504640                                       
 INPUT CARD>  5     20.0000000              0.3567410                                       
 INPUT CARD>  6      7.1930000              0.4465330                                       
 INPUT CARD>  7      2.6860000              0.1456030                                       
 INPUT CARD>S   2                                                                           
 INPUT CARD>  1      7.1930000             -0.1604050                                       
 INPUT CARD>  2      0.7000000              1.0582150                                       
 INPUT CARD>S   1                                                                           
 INPUT CARD>  1      0.2133000              1.0000000                                       
 INPUT CARD>P   4                                                                           
 INPUT CARD>  1     26.7900000              0.0182540                                       
 INPUT CARD>  2      5.9560000              0.1164610                                       
 INPUT CARD>  3      1.7070000              0.3901780                                       
 INPUT CARD>  4      0.5314000              0.6371020                                       
 INPUT CARD>P   1                                                                           
  300000000 WORDS OF MEMORY AVAILABLE


     RUN TITLE
     ---------
 N2...HF...Double-zeta basis                                                     

 THE POINT GROUP OF THE MOLECULE IS CNV     
 THE ORDER OF THE PRINCIPAL AXIS IS     2

 ATOM      ATOMIC                      COORDINATES (BOHR)
           CHARGE         X                   Y                   Z
 N           7.0     0.0000000000        0.0000000000        0.0000000000
 N           7.0     0.0000000000        0.0000000000        8.5037669447

          INTERNUCLEAR DISTANCES (ANGS.)
          ------------------------------

                1 N          2 N     

   1 N       0.0000000    4.5000000  
   2 N       4.5000000    0.0000000  

  * ... LESS THAN  3.000


     ATOMIC BASIS SET
     ----------------
 THE CONTRACTED PRIMITIVE FUNCTIONS HAVE BEEN UNNORMALIZED
 THE CONTRACTED BASIS FUNCTIONS ARE NOW NORMALIZED TO UNITY

  SHELL TYPE  PRIMITIVE        EXPONENT          CONTRACTION COEFFICIENT(S)

 N         

      1   S       1          5909.0000000    0.001189999548
      1   S       2           887.5000000    0.009098996542
      1   S       3           204.7000000    0.044144983225
      1   S       4            59.8400000    0.150463942825
      1   S       5            20.0000000    0.356740864442
      1   S       6             7.1930000    0.446532830321
      1   S       7             2.6860000    0.145602944672

      2   S       8             7.1930000   -0.160405033446
      2   S       9             0.7000000    1.058215220651

      3   S      10             0.2133000    1.000000000000

      4   P      11            26.7900000    0.018253998243
      4   P      12             5.9560000    0.116460988791
      4   P      13             1.7070000    0.390177962446
      4   P      14             0.5314000    0.637101938680

      5   P      15             0.1654000    1.000000000000

 N         

      6   S      16          5909.0000000    0.001189999548
      6   S      17           887.5000000    0.009098996542
      6   S      18           204.7000000    0.044144983225
      6   S      19            59.8400000    0.150463942825
      6   S      20            20.0000000    0.356740864442
      6   S      21             7.1930000    0.446532830321
      6   S      22             2.6860000    0.145602944672

      7   S      23             7.1930000   -0.160405033446
      7   S      24             0.7000000    1.058215220651

      8   S      25             0.2133000    1.000000000000

      9   P      26            26.7900000    0.018253998243
      9   P      27             5.9560000    0.116460988791
      9   P      28             1.7070000    0.390177962446
      9   P      29             0.5314000    0.637101938680

     10   P      30             0.1654000    1.000000000000

 TOTAL NUMBER OF BASIS SET SHELLS             =   10
 NUMBER OF CARTESIAN GAUSSIAN BASIS FUNCTIONS =   18
 NUMBER OF ELECTRONS                          =   14
 CHARGE OF MOLECULE                           =    0
 SPIN MULTIPLICITY                            =    1
 NUMBER OF OCCUPIED ORBITALS (ALPHA)          =    7
 NUMBER OF OCCUPIED ORBITALS (BETA )          =    7
 TOTAL NUMBER OF ATOMS                        =    2
 THE NUCLEAR REPULSION ENERGY IS        5.7621522695

 THIS MOLECULE IS RECOGNIZED AS BEING LINEAR,
 ORBITAL LZ DEGENERACY TOLERANCE ETOLLZ= 1.00E-06

     $CONTRL OPTIONS
     ---------------
 SCFTYP=RHF          RUNTYP=ENERGY       EXETYP=RUN     
 MPLEVL=       0     CITYP =ALDET        CCTYP =NONE         VBTYP =NONE    
 DFTTYP=NONE         TDDFT =NONE    
 MULT  =       1     ICHARG=       0     NZVAR =       0     COORD =UNIQUE  
 PP    =NONE         RELWFN=NONE         LOCAL =NONE         NUMGRD=       F
 ISPHER=      -1     NOSYM =       0     MAXIT =      30     UNITS =ANGS    
 PLTORB=       F     MOLPLT=       F     AIMPAC=       F     FRIEND=        
 NPRINT=       7     IREST =       0     GEOM  =INPUT   
 NORMF =       0     NORMP =       0     ITOL  =      20     ICUT  =       9
 INTTYP=BEST         GRDTYP=BEST         QMTTOL= 1.0E-06

     $SYSTEM OPTIONS
     ---------------
  REPLICATED MEMORY=   300000000 WORDS (ON EVERY NODE).
 DISTRIBUTED MEMDDI=           0 MILLION WORDS IN AGGREGATE,
 MEMDDI DISTRIBUTED OVER  12 PROCESSORS IS           0 WORDS/PROCESSOR.
 TOTAL MEMORY REQUESTED ON EACH PROCESSOR=   300000000 WORDS.
 TIMLIM=      525600.00 MINUTES, OR     365.0 DAYS.
 PARALL= T  BALTYP=  DLB     KDIAG=    0  COREFL= F
 MXSEQ2=     300 MXSEQ3=     150  mem10=         0

          ----------------
          PROPERTIES INPUT
          ----------------

     MOMENTS            FIELD           POTENTIAL          DENSITY
 IEMOM =       1   IEFLD =       0   IEPOT =       0   IEDEN =       0
 WHERE =COMASS     WHERE =NUCLEI     WHERE =NUCLEI     WHERE =NUCLEI  
 OUTPUT=BOTH       OUTPUT=BOTH       OUTPUT=BOTH       OUTPUT=BOTH    
 IEMINT=       0   IEFINT=       0                     IEDINT=       0
                                                       MORB  =       0
          EXTRAPOLATION IN EFFECT
          SOSCF IN EFFECT
 ORBITAL PRINTING OPTION: NPREO=     1    18     2     1

     -------------------------------
     INTEGRAL TRANSFORMATION OPTIONS
     -------------------------------
     NWORD  =            0
     CUTOFF = 1.0E-09     MPTRAN =       0
     DIRTRF =       F     AOINTS =DUP     

          ----------------------
          INTEGRAL INPUT OPTIONS
          ----------------------
 NOPK  =       1 NORDER=       0 SCHWRZ=       F

     ------------------------------------------
     THE POINT GROUP IS CNV, NAXIS= 2, ORDER= 4
     ------------------------------------------

     DIMENSIONS OF THE SYMMETRY SUBSPACES ARE
 A1  =   10     A2  =    0     B1  =    4     B2  =    4

 ..... DONE SETTING UP THE RUN .....
 CPU     0: STEP CPU TIME=     0.02 TOTAL CPU TIME=        0.0 (    0.0 MIN)
 TOTAL WALL CLOCK TIME=        0.0 SECONDS, CPU UTILIZATION IS 100.00%

          ********************
          1 ELECTRON INTEGRALS
          ********************
 ...... END OF ONE-ELECTRON INTEGRALS ......
 CPU     0: STEP CPU TIME=     0.00 TOTAL CPU TIME=        0.0 (    0.0 MIN)
 TOTAL WALL CLOCK TIME=        0.1 SECONDS, CPU UTILIZATION IS  40.00%

          -------------
          GUESS OPTIONS
          -------------
          GUESS =HUCKEL            NORB  =       0          NORDER=       0
          MIX   =       F          PRTMO =       F          PUNMO =       F
          TOLZ  = 1.0E-08          TOLE  = 1.0E-05
          SYMDEN=       F          PURIFY=       F

 INITIAL GUESS ORBITALS GENERATED BY HUCKEL   ROUTINE.
 HUCKEL GUESS REQUIRES      4352 WORDS.

 SYMMETRIES FOR INITIAL GUESS ORBITALS FOLLOW.   BOTH SET(S).
     7 ORBITALS ARE OCCUPIED (    2 CORE ORBITALS).
     3=A1       4=A1       5=A1       6=B1       7=B2       8=B1       9=B2  
    10=A1      11=A1      12=A1      13=A1      14=A1      15=B1      16=B1  
    17=B2  
 ...... END OF INITIAL ORBITAL SELECTION ......
 CPU     0: STEP CPU TIME=     0.00 TOTAL CPU TIME=        0.0 (    0.0 MIN)
 TOTAL WALL CLOCK TIME=        0.1 SECONDS, CPU UTILIZATION IS  40.00%

                    ----------------------
                    AO INTEGRAL TECHNOLOGY
                    ----------------------
     S,P,L SHELL ROTATED AXIS INTEGRALS, REPROGRAMMED BY
        KAZUYA ISHIMURA (IMS) AND JOSE SIERRA (SYNSTAR).
     S,P,D,L SHELL ROTATED AXIS INTEGRALS PROGRAMMED BY
        KAZUYA ISHIMURA (INSTITUTE FOR MOLECULAR SCIENCE).
     S,P,D,F,G SHELL TO TOTAL QUARTET ANGULAR MOMENTUM SUM 5,
        ERIC PROGRAM BY GRAHAM FLETCHER (ELORET AND NASA ADVANCED
        SUPERCOMPUTING DIVISION, AMES RESEARCH CENTER).
     S,P,D,F,G,L SHELL GENERAL RYS QUADRATURE PROGRAMMED BY
        MICHEL DUPUIS (PACIFIC NORTHWEST NATIONAL LABORATORY).

          --------------------
          2 ELECTRON INTEGRALS
          --------------------

 THE -PK- OPTION IS OFF, THE INTEGRALS ARE NOT IN SUPERMATRIX FORM.
 STORING   15000 INTEGRALS/RECORD ON DISK, USING 12 BYTES/INTEGRAL.
 TWO ELECTRON INTEGRAL EVALUATION REQUIRES   89411 WORDS OF MEMORY.
 II,JST,KST,LST =  1  1  1  1 NREC =         1 INTLOC =    1
 II,JST,KST,LST =  2  1  1  1 NREC =         1 INTLOC =    2
 II,JST,KST,LST =  3  1  1  1 NREC =         1 INTLOC =    7
 II,JST,KST,LST =  4  1  1  1 NREC =         1 INTLOC =   22
 II,JST,KST,LST =  5  1  1  1 NREC =         1 INTLOC =   67
 II,JST,KST,LST =  6  1  1  1 NREC =         1 INTLOC =   67
 II,JST,KST,LST =  7  1  1  1 NREC =         1 INTLOC =   67
 II,JST,KST,LST =  8  1  1  1 NREC =         1 INTLOC =  121
 II,JST,KST,LST =  9  1  1  1 NREC =         1 INTLOC =  221
 II,JST,KST,LST = 10  1  1  1 NREC =         1 INTLOC =  481
 TOTAL NUMBER OF NONZERO TWO-ELECTRON INTEGRALS =                2850
         12 INTEGRAL RECORDS WERE STORED ON DISK FILE  8.
  ...... END OF TWO-ELECTRON INTEGRALS .....
 CPU     0: STEP CPU TIME=     0.02 TOTAL CPU TIME=        0.0 (    0.0 MIN)
 TOTAL WALL CLOCK TIME=        0.1 SECONDS, CPU UTILIZATION IS  57.14%

          --------------------------
                 RHF SCF CALCULATION
          --------------------------

     NUCLEAR ENERGY =         5.7621522695
     MAXIT =   30     NPUNCH=    2
     EXTRAP=T  DAMP=F  SHIFT=F  RSTRCT=F  DIIS=F  DEM=F  SOSCF=T
     DENSITY MATRIX CONV=  1.00E-06
     SOSCF WILL OPTIMIZE      77 ORBITAL ROTATIONS, SOGTOL=   0.250
     MEMORY REQUIRED FOR RHF ITERS=     32828 WORDS.

 ITER EX DEM     TOTAL ENERGY        E CHANGE  DENSITY CHANGE     ORB. GRAD
   1  0  0     -107.6681659679  -107.6681659679   0.266684621   0.000000000
          ---------------START SECOND ORDER SCF---------------
   2  1  0     -107.8470999566    -0.1789339887   0.114634811   0.061832229
   3  2  0     -107.8624890398    -0.0153890832   0.025568284   0.024143305
   4  3  0     -107.8655403712    -0.0030513314   0.002688102   0.001267674
   5  4  0     -107.8655505633    -0.0000101921   0.000889553   0.000363816
   6  5  0     -107.8655510391    -0.0000004758   0.000014078   0.000011636
   7  6  0     -107.8655510400    -0.0000000009   0.000004612   0.000002200
   8  7  0     -107.8655510401    -0.0000000001   0.000000594   0.000000320
   9  8  0     -107.8655510401    -0.0000000000   0.000000047   0.000000025

          -----------------
          DENSITY CONVERGED
          -----------------
     TIME TO FORM FOCK OPERATORS=       0.0 SECONDS (       0.0 SEC/ITER)
     TIME TO SOLVE SCF EQUATIONS=       0.0 SECONDS (       0.0 SEC/ITER)

 FINAL RHF ENERGY IS     -107.8655510401 AFTER   9 ITERATIONS

 LZ VALUE ANALYSIS FOR THE MOS
 ----------------------------------------
 MO     1 (    1) HAS LZ(WEIGHT)= 0.00(100.0%) 
 MO     2 (    2) HAS LZ(WEIGHT)= 0.00(100.0%) 
 MO     3 (    3) HAS LZ(WEIGHT)= 0.00(100.0%) 
 MO     4 (    4) HAS LZ(WEIGHT)= 0.00(100.0%) 
 MO     5 (    5) HAS LZ(WEIGHT)= 0.00(100.0%) 
 MO     6 (    6) HAS LZ(WEIGHT)=-1.00( 50.0%)  1.00( 50.0%) 
 MO     7 (    6) HAS LZ(WEIGHT)=-1.00( 50.0%)  1.00( 50.0%) 
 MO     8 (    7) HAS LZ(WEIGHT)=-1.00( 50.0%)  1.00( 50.0%) 
 MO     9 (    7) HAS LZ(WEIGHT)=-1.00( 50.0%)  1.00( 50.0%) 
 MO    10 (    8) HAS LZ(WEIGHT)= 0.00(100.0%) 
 MO    11 (    9) HAS LZ(WEIGHT)= 0.00(100.0%) 
 MO    12 (   10) HAS LZ(WEIGHT)=-1.00( 50.0%)  1.00( 50.0%) 
 MO    13 (   10) HAS LZ(WEIGHT)=-1.00( 50.0%)  1.00( 50.0%) 
 MO    14 (   11) HAS LZ(WEIGHT)=-1.00( 50.0%)  1.00( 50.0%) 
 MO    15 (   11) HAS LZ(WEIGHT)=-1.00( 50.0%)  1.00( 50.0%) 
 MO    16 (   12) HAS LZ(WEIGHT)= 0.00(100.0%) 
 MO    17 (   13) HAS LZ(WEIGHT)= 0.00(100.0%) 
 MO    18 (   14) HAS LZ(WEIGHT)= 0.00(100.0%) 

          ------------
          EIGENVECTORS
          ------------

                      1          2          3          4          5
                  -15.8173   -15.8172    -1.0277    -1.0232    -0.3141
                     A1         A1         A1         A1         A1  
    1  N  1  S    0.706970   0.706972  -0.173310   0.173490  -0.002007
    2  N  1  S   -0.000102  -0.000096   0.408954  -0.411203   0.011196
    3  N  1  S    0.000902   0.000878   0.359592  -0.357420  -0.004854
    4  N  1  X    0.000000   0.000000   0.000000   0.000000   0.000000
    5  N  1  Y    0.000000   0.000000   0.000000   0.000000   0.000000
    6  N  1  Z    0.000070   0.000040   0.002651   0.005090  -0.496506
    7  N  1  X    0.000000   0.000000   0.000000   0.000000   0.000000
    8  N  1  Y    0.000000   0.000000   0.000000   0.000000   0.000000
    9  N  1  Z   -0.000015  -0.000033   0.003170   0.003629  -0.303105
   10  N  2  S    0.706970  -0.706972  -0.173310  -0.173490  -0.002007
   11  N  2  S   -0.000102   0.000096   0.408954   0.411203   0.011196
   12  N  2  S    0.000902  -0.000878   0.359592   0.357420  -0.004854
   13  N  2  X    0.000000   0.000000   0.000000   0.000000   0.000000
   14  N  2  Y    0.000000   0.000000   0.000000   0.000000   0.000000
   15  N  2  Z   -0.000070   0.000040  -0.002651   0.005090   0.496506
   16  N  2  X    0.000000   0.000000   0.000000   0.000000   0.000000
   17  N  2  Y    0.000000   0.000000   0.000000   0.000000   0.000000
   18  N  2  Z    0.000015  -0.000033  -0.003170   0.003629   0.303105

                      6          7          8          9         10
                   -0.3101    -0.3101    -0.1937    -0.1937    -0.1863
                     B1         B2         B1         B2         A1  
    1  N  1  S    0.000000   0.000000   0.000000   0.000000  -0.002445
    2  N  1  S    0.000000   0.000000   0.000000   0.000000   0.009609
    3  N  1  S    0.000000   0.000000   0.000000   0.000000  -0.000515
    4  N  1  X    0.504316   0.000000  -0.504817   0.000000   0.000000
    5  N  1  Y    0.000000   0.504316   0.000000  -0.504817   0.000000
    6  N  1  Z    0.000000   0.000000   0.000000   0.000000   0.508255
    7  N  1  X    0.296316   0.000000  -0.296148   0.000000   0.000000
    8  N  1  Y    0.000000   0.296316   0.000000  -0.296148   0.000000
    9  N  1  Z    0.000000   0.000000   0.000000   0.000000   0.294174
   10  N  2  S    0.000000   0.000000   0.000000   0.000000   0.002445
   11  N  2  S    0.000000   0.000000   0.000000   0.000000  -0.009609
   12  N  2  S    0.000000   0.000000   0.000000   0.000000   0.000515
   13  N  2  X    0.504316   0.000000   0.504817   0.000000   0.000000
   14  N  2  Y    0.000000   0.504316   0.000000   0.504817   0.000000
   15  N  2  Z    0.000000   0.000000   0.000000   0.000000   0.508255
   16  N  2  X    0.296316   0.000000   0.296148   0.000000   0.000000
   17  N  2  Y    0.000000   0.296316   0.000000   0.296148   0.000000
   18  N  2  Z    0.000000   0.000000   0.000000   0.000000   0.294174

                     11         12         13         14         15
                    0.6138     0.6397     0.6397     0.6469     0.6469
                     A1         B1         B2         B1         B2  
    1  N  1  S    0.004031   0.000000   0.000000   0.000000   0.000000
    2  N  1  S   -0.042024   0.000000   0.000000   0.000000   0.000000
    3  N  1  S    0.038733   0.000000   0.000000   0.000000   0.000000
    4  N  1  X    0.000000  -0.661594   0.000000   0.662157   0.000000
    5  N  1  Y    0.000000   0.000000  -0.661594   0.000000   0.662157
    6  N  1  Z   -0.662773   0.000000   0.000000   0.000000   0.000000
    7  N  1  X    0.000000   0.776204   0.000000  -0.779324   0.000000
    8  N  1  Y    0.000000   0.000000   0.776204   0.000000  -0.779324
    9  N  1  Z    0.758096   0.000000   0.000000   0.000000   0.000000
   10  N  2  S    0.004031   0.000000   0.000000   0.000000   0.000000
   11  N  2  S   -0.042024   0.000000   0.000000   0.000000   0.000000
   12  N  2  S    0.038733   0.000000   0.000000   0.000000   0.000000
   13  N  2  X    0.000000  -0.661594   0.000000  -0.662157   0.000000
   14  N  2  Y    0.000000   0.000000  -0.661594   0.000000  -0.662157
   15  N  2  Z    0.662773   0.000000   0.000000   0.000000   0.000000
   16  N  2  X    0.000000   0.776204   0.000000   0.779324   0.000000
   17  N  2  Y    0.000000   0.000000   0.776204   0.000000   0.779324
   18  N  2  Z   -0.758096   0.000000   0.000000   0.000000   0.000000

                     16         17         18
                    0.6769     0.9038     0.9109
                     A1         A1         A1  
    1  N  1  S   -0.004710  -0.091152   0.090759
    2  N  1  S    0.052410   1.109184  -1.108833
    3  N  1  S   -0.049643  -1.102599   1.104323
    4  N  1  X    0.000000   0.000000   0.000000
    5  N  1  Y    0.000000   0.000000   0.000000
    6  N  1  Z   -0.663408  -0.023935  -0.031919
    7  N  1  X    0.000000   0.000000   0.000000
    8  N  1  Y    0.000000   0.000000   0.000000
    9  N  1  Z    0.794294   0.036084   0.044656
   10  N  2  S    0.004710  -0.091152  -0.090759
   11  N  2  S   -0.052410   1.109184   1.108833
   12  N  2  S    0.049643  -1.102599  -1.104323
   13  N  2  X    0.000000   0.000000   0.000000
   14  N  2  Y    0.000000   0.000000   0.000000
   15  N  2  Z   -0.663408   0.023935  -0.031919
   16  N  2  X    0.000000   0.000000   0.000000
   17  N  2  Y    0.000000   0.000000   0.000000
   18  N  2  Z    0.794294  -0.036084   0.044656
 ...... END OF RHF CALCULATION ......
 CPU     0: STEP CPU TIME=     0.00 TOTAL CPU TIME=        0.0 (    0.0 MIN)
 TOTAL WALL CLOCK TIME=        0.1 SECONDS, CPU UTILIZATION IS  50.00%

     ----------------------------------------------------------------
     PROPERTY VALUES FOR THE RHF   SELF-CONSISTENT FIELD WAVEFUNCTION
     ----------------------------------------------------------------

          -----------------
          ENERGY COMPONENTS
          -----------------

         WAVEFUNCTION NORMALIZATION =       1.0000000000

                ONE ELECTRON ENERGY =    -158.0160421418
                TWO ELECTRON ENERGY =      44.3883388323
           NUCLEAR REPULSION ENERGY =       5.7621522695
                                      ------------------
                       TOTAL ENERGY =    -107.8655510401

 ELECTRON-ELECTRON POTENTIAL ENERGY =      44.3883388323
  NUCLEUS-ELECTRON POTENTIAL ENERGY =    -265.5470392546
   NUCLEUS-NUCLEUS POTENTIAL ENERGY =       5.7621522695
                                      ------------------
             TOTAL POTENTIAL ENERGY =    -215.3965481528
               TOTAL KINETIC ENERGY =     107.5309971127
                 VIRIAL RATIO (V/T) =       2.0031112324

  ...... PI ENERGY ANALYSIS ......

 ENERGY ANALYSIS:
            FOCK ENERGY=    -69.2393640653
          BARE H ENERGY=   -158.0160421418
     ELECTRONIC ENERGY =   -113.6277031036
         KINETIC ENERGY=    107.5309971127
          N-N REPULSION=      5.7621522695
           TOTAL ENERGY=   -107.8655508341
        SIGMA PART(1+2)=   -102.2338241003
               (K,V1,2)=    101.0806541434   -237.5493597817     34.2348815381
           PI PART(1+2)=    -11.3938790033
               (K,V1,2)=      6.4503429694    -27.9976794728     10.1534575001
  SIGMA SKELETON, ERROR=    -96.4716718308     -0.0000000000
             MIXED PART= 0.00000E+00 0.00000E+00 0.00000E+00 0.00000E+00
 ...... END OF PI ENERGY ANALYSIS ......

          ---------------------------------------
          MULLIKEN AND LOWDIN POPULATION ANALYSES
          ---------------------------------------

               ----- POPULATIONS IN EACH AO -----
                             MULLIKEN      LOWDIN
              1  N  1  S      2.00012     1.99714
              2  N  1  S      1.06417     1.03445
              3  N  1  S      0.93564     0.96833
              4  N  1  X      0.66631     0.64119
              5  N  1  Y      0.66631     0.64119
              6  N  1  Z      0.65212     0.62798
              7  N  1  X      0.33369     0.35881
              8  N  1  Y      0.33369     0.35881
              9  N  1  Z      0.34794     0.37210
             10  N  2  S      2.00012     1.99714
             11  N  2  S      1.06417     1.03445
             12  N  2  S      0.93564     0.96833
             13  N  2  X      0.66631     0.64119
             14  N  2  Y      0.66631     0.64119
             15  N  2  Z      0.65212     0.62798
             16  N  2  X      0.33369     0.35881
             17  N  2  Y      0.33369     0.35881
             18  N  2  Z      0.34794     0.37210

          ----- MULLIKEN ATOMIC OVERLAP POPULATIONS -----
          (OFF-DIAGONAL ELEMENTS NEED TO BE MULTIPLIED BY 2)

             1           2

    1    6.9933853
    2    0.0066147   6.9933853

          TOTAL MULLIKEN AND LOWDIN ATOMIC POPULATIONS
       ATOM         MULL.POP.    CHARGE          LOW.POP.     CHARGE
    1 N             7.000000   -0.000000         7.000000   -0.000000
    2 N             7.000000    0.000000         7.000000    0.000000

          ---------------------
          ELECTROSTATIC MOMENTS
          ---------------------

 POINT   1           X           Y           Z (BOHR)    CHARGE
                 0.000000    0.000000    4.251883       -0.00 (A.U.)
         DX          DY          DZ         /D/  (DEBYE)
     0.000000    0.000000    0.000000    0.000000
 ...... END OF PROPERTY EVALUATION ......
 CPU     0: STEP CPU TIME=     0.00 TOTAL CPU TIME=        0.0 (    0.0 MIN)
 TOTAL WALL CLOCK TIME=        0.1 SECONDS, CPU UTILIZATION IS  36.36%

 DETERMINANT CI OPTIONS   NRNFG   NPFLG
 INTEGRAL TRANSFORMATION    1       0
 DIAGONALIZE HAMILTONIAN    1       0
 FORM 1E- DENSITY MATRIX    1       0
 FORM 2E- DENSITY MATRIX    0       0

     --------------------------------------------------
          AMES LABORATORY DETERMINANTAL FULL CI
     PROGRAM WRITTEN BY JOE IVANIC AND KLAUS RUEDENBERG
     --------------------------------------------------

 THE POINT GROUP                  =   C2V     
 THE STATE SYMMETRY               =   A1      
 NUMBER OF CORE ORBITALS          =    2
 NUMBER OF ACTIVE ORBITALS        =   16
 NUMBER OF ALPHA ELECTRONS        =    7 (   5 ACTIVE)
 NUMBER OF BETA ELECTRONS         =    7 (   5 ACTIVE)
 NUMBER OF OCCUPIED ORBITALS      =   18
 NUMBER OF CI STATES REQUESTED    =    1
 NUMBER OF CI STARTING VECTORS    =    6
 MAX. NO. OF CI EXPANSION VECTORS =   12
 SIZE OF INITIAL CI GUESS MATRIX  =  300
 MAX. NO. OF CI ITERS/STATE       =  100
 CI DIAGONALIZATION CRITERION     = 1.00E-06
 CI PROPERTIES WILL BE FOUND FOR ROOT NUMBER   1
 1E- DENSITY MATRIX OPTIONS ARE 1

 CORRELATION ENERGY ANALYSIS      =    F

 SYMMETRIES FOR THE   2 CORE,  16 ACTIVE ARE

     CORE= A1    A1  

   ACTIVE= A1    A1    A1    B1    B2    B1    B2    A1    A1    B1  
           B2    B1    B2    A1    A1    A1  

     --------------------------------------------
     PARTIAL TWO ELECTRON INTEGRAL TRANSFORMATION
     --------------------------------------------

 NUMBER OF CORE MOLECULAR ORBITALS     =    2
 NUMBER OF OCCUPIED MOLECULAR ORBITALS =   18
 TOTAL NUMBER OF MOLECULAR ORBITALS    =   18
 TOTAL NUMBER OF ATOMIC ORBITALS       =   18
 THRESHOLD FOR KEEPING TRANSFORMED 2E- INTEGRALS = 1.000E-09

 -------------------------------     ------------------------------
 DISTRIBUTED DATA TRANSFORMATION     PROGRAM WRITTEN BY G. FLETCHER
 -------------------------------     ------------------------------

 THE DISTRIBUTED MEMORY REQUIRED FOR THIS STEP IS MEMDDI=         1 MWORDS
 CREATING DISTRIBUTED STORAGE FOR [OCC OCC|OCC OCC] INTEGRALS
 DDI: Creating Array [0] - 171 x 171 = 29241 words.
 CREATING WORKSPACE OF SIZE VVOO
 DDI: Creating Array [1] - 171 x 171 = 29241 words.
 FOR   12 PROCESSORS, THE REPLICATED MEMORY NEEDED IS       58507 WORDS.

      DIRECT 4-INDEX TRANSFORMATION 
      SCHWARZ INEQUALITY TEST SKIPPED          0 INTEGRAL BLOCKS
 ----- FROZEN CORE ENERGY =       -92.2864305198
 ... END OF INTEGRAL TRANSFORMATION ...
 CPU     0: STEP CPU TIME=     0.01 TOTAL CPU TIME=        0.0 (    0.0 MIN)
 TOTAL WALL CLOCK TIME=        0.1 SECONDS, CPU UTILIZATION IS  35.71%

     --------------------------------------------------
          AMES LABORATORY DETERMINANTAL FULL CI
     PROGRAM WRITTEN BY JOE IVANIC AND KLAUS RUEDENBERG
     --------------------------------------------------

 THE NUMBER OF DETERMINANTS HAVING SPACE SYMMETRY A1 
 IN POINT GROUP C2V  WITH SZ=  0.0 IS        4777056
 THE DETERMINANT FULL CI REQUIRES       119865995 WORDS
 INITIAL CI VECTOR GUESS TIME  :          2.0
 INITIAL FULL CI ITERATION TIME:          5.5

 ITERATION      ENERGY           GRADIENT
     0     -108.7404663874     0.46047737
     1     -108.8421535252     0.18737570
     2     -108.8547442927     0.07080692
     3     -108.8563472649     0.03088622
     4     -108.8566500217     0.01546646
     5     -108.8567233041     0.00641973
     6     -108.8567347237     0.00227456
     7     -108.8567359617     0.00140104
     8     -108.8567364323     0.00103627
     9     -108.8567369865     0.00071440
    10     -108.8567371457     0.00043870
    11     -108.8567371955     0.00027322
    12     -108.8567372124     0.00015702
    13     -108.8567372164     0.00009391
    14     -108.8567372187     0.00005714
    15     -108.8567372198     0.00003959
    16     -108.8567372202     0.00002759
    17     -108.8567372205     0.00002057
    18     -108.8567372206     0.00001724
    19     -108.8567372207     0.00001190
    20     -108.8567372207     0.00000853
    21     -108.8567372207     0.00000730
    22     -108.8567372207     0.00000553
    23     -108.8567372207     0.00000347
    24     -108.8567372208     0.00000380
    25     -108.8567372208     0.00000409
    26     -108.8567372208     0.00000569
    27     -108.8567372208     0.00000698
    28     -108.8567372208     0.00000690
    29     -108.8567372208     0.00001138
    30     -108.8567372209     0.00001665
    31     -108.8567372210     0.00001633
    32     -108.8567372211     0.00001947
    33     -108.8567372214     0.00004032
    34     -108.8567372227     0.00008254
    35     -108.8567372344     0.00024831
    36     -108.8567373002     0.00066640
    37     -108.8567396445     0.00329101
    38     -108.8567430568     0.00205789
    39     -108.8567440506     0.00124229
    40     -108.8567443758     0.00066525
    41     -108.8567445207     0.00047621
    42     -108.8567445715     0.00042509
    43     -108.8567445987     0.00025538
    44     -108.8567446220     0.00018343
    45     -108.8567446373     0.00019293
    46     -108.8567446461     0.00011989
    47     -108.8567446495     0.00005873
    48     -108.8567446503     0.00003513
    49     -108.8567446506     0.00002796
    50     -108.8567446509     0.00001860
    51     -108.8567446510     0.00001134
    52     -108.8567446510     0.00000556
    53     -108.8567446510     0.00000416
    54     -108.8567446510     0.00000413
    55     -108.8567446510     0.00000241
    56     -108.8567446510     0.00000173
    57     -108.8567446510     0.00000180
    58     -108.8567446510     0.00000110
    59     -108.8567446510     0.00000056

 CONVERGED STATE    1 ENERGY=     -108.8567446510 IN   59 ITERS

 ALL STATES CONVERGED.

 CI EIGENVECTORS WILL BE LABELED IN GROUP=C2V     
 PRINTING CI COEFFICIENTS LARGER THAN  0.050000

 STATE   1  ENERGY=      -108.8567446510  S=  0.00  SZ=  0.00  SPACE SYM=A1  

      ALPHA       |      BETA        | COEFFICIENT
------------------|------------------|------------
 1111100000000000 | 1111100000000000 |   0.2421786
 1110110000000000 | 1110110000000000 |  -0.2417173
 1111001000000000 | 1111001000000000 |  -0.2417173
 1110011000000000 | 1110011000000000 |   0.2412576
 1101100100000000 | 1101100100000000 |  -0.2385222
 1101001100000000 | 1101001100000000 |   0.2380732
 1100110100000000 | 1100110100000000 |   0.2380732
 1100011100000000 | 1100011100000000 |  -0.2376258
 1111010000000000 | 1110101000000000 |   0.1611443
 1110101000000000 | 1111010000000000 |   0.1611443
 1101110000000000 | 1110100100000000 |  -0.1600559
 1110100100000000 | 1101110000000000 |  -0.1600559
 1111000100000000 | 1101101000000000 |   0.1600559
 1101101000000000 | 1111000100000000 |   0.1600559
 1101011000000000 | 1110001100000000 |  -0.1597531
 1110001100000000 | 1101011000000000 |  -0.1597531
 1110010100000000 | 1100111000000000 |   0.1597531
 1100111000000000 | 1110010100000000 |   0.1597531
 1101010100000000 | 1100101100000000 |  -0.1587149
 1100101100000000 | 1101010100000000 |  -0.1587149
 1110110000000000 | 1111001000000000 |   0.0805727
 1111001000000000 | 1110110000000000 |   0.0805727
 1111100000000000 | 1110011000000000 |   0.0805717
 1110011000000000 | 1111100000000000 |   0.0805717
 1111001000000000 | 1101100100000000 |   0.0800330
 1101100100000000 | 1111001000000000 |   0.0800330
 1110110000000000 | 1101100100000000 |  -0.0800330
 1101100100000000 | 1110110000000000 |  -0.0800330
 1101001100000000 | 1111100000000000 |  -0.0800230
 1111100000000000 | 1101001100000000 |  -0.0800230
 1111100000000000 | 1100110100000000 |   0.0800230
 1100110100000000 | 1111100000000000 |   0.0800230
 1100110100000000 | 1110011000000000 |   0.0798816
 1110011000000000 | 1100110100000000 |   0.0798816
 1110011000000000 | 1101001100000000 |  -0.0798816
 1101001100000000 | 1110011000000000 |  -0.0798816
 1110110000000000 | 1100011100000000 |  -0.0798716
 1100011100000000 | 1110110000000000 |  -0.0798716
 1111001000000000 | 1100011100000000 |   0.0798716
 1100011100000000 | 1111001000000000 |   0.0798716
 1100110100000000 | 1101001100000000 |  -0.0793580
 1101001100000000 | 1100110100000000 |  -0.0793580
 1101100100000000 | 1100011100000000 |  -0.0793570
 1100011100000000 | 1101100100000000 |  -0.0793570
 ..... DONE WITH DETERMINANT CI COMPUTATION .....
 CPU     0: STEP CPU TIME=   153.19 TOTAL CPU TIME=      153.2 (    2.6 MIN)
 TOTAL WALL CLOCK TIME=      194.3 SECONDS, CPU UTILIZATION IS  78.86%

     ---------------------------
     ONE PARTICLE DENSITY MATRIX
     ---------------------------

 DENSITY MATRIX WILL BE SAVED FOR   1-TH STATE WITH S= 0.00

 CI EIGENSTATE   1 TOTAL ENERGY =     -108.8567446510

          NATURAL ORBITALS IN ATOMIC ORBITAL BASIS
          ----------------------------------------

                      1          2          3          4          5
                    2.0000     2.0000     1.9850     1.9849     1.0072
                     A1         A1         A1         A1         A1  
    1  N  1  S    0.706970   0.706972  -0.171023  -0.171071  -0.000171
    2  N  1  S   -0.000102  -0.000096   0.381595   0.382121   0.001142
    3  N  1  S    0.000902   0.000878   0.386581   0.386171  -0.000384
    4  N  1  X    0.000000   0.000000   0.000000   0.000000   0.000000
    5  N  1  Y    0.000000   0.000000   0.000000   0.000000   0.000000
    6  N  1  Z    0.000070   0.000040  -0.000505   0.000501  -0.557393
    7  N  1  X    0.000000   0.000000   0.000000   0.000000   0.000000
    8  N  1  Y    0.000000   0.000000   0.000000   0.000000   0.000000
    9  N  1  Z   -0.000015  -0.000033   0.000736  -0.000743  -0.229534
   10  N  2  S    0.706970  -0.706972  -0.171023   0.171071  -0.000171
   11  N  2  S   -0.000102   0.000096   0.381595  -0.382121   0.001142
   12  N  2  S    0.000902  -0.000878   0.386581  -0.386171  -0.000384
   13  N  2  X    0.000000   0.000000   0.000000   0.000000   0.000000
   14  N  2  Y    0.000000   0.000000   0.000000   0.000000   0.000000
   15  N  2  Z   -0.000070   0.000040   0.000505   0.000501   0.557393
   16  N  2  X    0.000000   0.000000   0.000000   0.000000   0.000000
   17  N  2  Y    0.000000   0.000000   0.000000   0.000000   0.000000
   18  N  2  Z    0.000015  -0.000033  -0.000736  -0.000743   0.229534

                      6          7          8          9         10
                    0.9968     0.9968     0.9942     0.9942     0.9838
                     B1         B2         B1         B2         A1  
    1  N  1  S    0.000000   0.000000   0.000000   0.000000  -0.000234
    2  N  1  S    0.000000   0.000000   0.000000   0.000000   0.001086
    3  N  1  S    0.000000   0.000000   0.000000   0.000000  -0.000348
    4  N  1  X    0.559698   0.000000  -0.560312   0.000000   0.000000
    5  N  1  Y    0.000000   0.559698   0.000000  -0.560312   0.000000
    6  N  1  Z    0.000000   0.000000   0.000000   0.000000   0.562552
    7  N  1  X    0.228006   0.000000  -0.227482   0.000000   0.000000
    8  N  1  Y    0.000000   0.228006   0.000000  -0.227482   0.000000
    9  N  1  Z    0.000000   0.000000   0.000000   0.000000   0.225984
   10  N  2  S    0.000000   0.000000   0.000000   0.000000   0.000234
   11  N  2  S    0.000000   0.000000   0.000000   0.000000  -0.001086
   12  N  2  S    0.000000   0.000000   0.000000   0.000000   0.000348
   13  N  2  X    0.559698   0.000000   0.560312   0.000000   0.000000
   14  N  2  Y    0.000000   0.559698   0.000000   0.560312   0.000000
   15  N  2  Z    0.000000   0.000000   0.000000   0.000000   0.562552
   16  N  2  X    0.228006   0.000000   0.227482   0.000000   0.000000
   17  N  2  Y    0.000000   0.228006   0.000000   0.227482   0.000000
   18  N  2  Z    0.000000   0.000000   0.000000   0.000000   0.225984

                     11         12         13         14         15
                    0.0109     0.0108     0.0061     0.0059     0.0059
                     A1         A1         A1         B2         B1  
    1  N  1  S   -0.095446   0.095361  -0.002547   0.000000   0.000000
    2  N  1  S    1.119148  -1.119977   0.036277   0.000000   0.000000
    3  N  1  S   -1.093453   1.095168  -0.038344   0.000000   0.000000
    4  N  1  X    0.000000   0.000000   0.000000   0.000000  -0.615450
    5  N  1  Y    0.000000   0.000000   0.000000  -0.615450   0.000000
    6  N  1  Z    0.017768   0.015749  -0.612669   0.000000   0.000000
    7  N  1  X    0.000000   0.000000   0.000000   0.000000   0.798942
    8  N  1  Y    0.000000   0.000000   0.000000   0.798942   0.000000
    9  N  1  Z   -0.020011  -0.018073   0.784097   0.000000   0.000000
   10  N  2  S   -0.095446  -0.095361  -0.002547   0.000000   0.000000
   11  N  2  S    1.119148   1.119977   0.036277   0.000000   0.000000
   12  N  2  S   -1.093453  -1.095168  -0.038344   0.000000   0.000000
   13  N  2  X    0.000000   0.000000   0.000000   0.000000  -0.615450
   14  N  2  Y    0.000000   0.000000   0.000000  -0.615450   0.000000
   15  N  2  Z   -0.017768   0.015749   0.612669   0.000000   0.000000
   16  N  2  X    0.000000   0.000000   0.000000   0.000000   0.798942
   17  N  2  Y    0.000000   0.000000   0.000000   0.798942   0.000000
   18  N  2  Z    0.020011  -0.018073  -0.784097   0.000000   0.000000

                     16         17         18
                    0.0059     0.0059     0.0056
                     B1         B2         A1  
    1  N  1  S    0.000000   0.000000   0.002290
    2  N  1  S    0.000000   0.000000  -0.032733
    3  N  1  S    0.000000   0.000000   0.034982
    4  N  1  X    0.615908   0.000000   0.000000
    5  N  1  Y    0.000000   0.615908   0.000000
    6  N  1  Z    0.000000   0.000000  -0.618680
    7  N  1  X   -0.802061   0.000000   0.000000
    8  N  1  Y    0.000000  -0.802061   0.000000
    9  N  1  Z    0.000000   0.000000   0.817345
   10  N  2  S    0.000000   0.000000  -0.002290
   11  N  2  S    0.000000   0.000000   0.032733
   12  N  2  S    0.000000   0.000000  -0.034982
   13  N  2  X   -0.615908   0.000000   0.000000
   14  N  2  Y    0.000000  -0.615908   0.000000
   15  N  2  Z    0.000000   0.000000  -0.618680
   16  N  2  X    0.802061   0.000000   0.000000
   17  N  2  Y    0.000000   0.802061   0.000000
   18  N  2  Z    0.000000   0.000000   0.817345
 ..... DONE WITH ONE PARTICLE DENSITY MATRIX .....
 CPU     0: STEP CPU TIME=     1.03 TOTAL CPU TIME=      154.3 (    2.6 MIN)
 TOTAL WALL CLOCK TIME=      195.4 SECONDS, CPU UTILIZATION IS  78.96%

     --------------------------------------------------------
     ALDET CI PROPERTIES...FOR THE WAVEFUNCTION OF STATE    1
               USING THE EXPECTATION VALUE DENSITY
     --------------------------------------------------------

          -----------------
          ENERGY COMPONENTS
          -----------------

         WAVEFUNCTION NORMALIZATION =       1.0000000000

                ONE ELECTRON ENERGY =    -159.1952736897
                TWO ELECTRON ENERGY =      44.5763767692
           NUCLEAR REPULSION ENERGY =       5.7621522695
                                      ------------------
                       TOTAL ENERGY =    -108.8567446510

 ELECTRON-ELECTRON POTENTIAL ENERGY =      44.5763767692
  NUCLEUS-ELECTRON POTENTIAL ENERGY =    -267.9071977510
   NUCLEUS-NUCLEUS POTENTIAL ENERGY =       5.7621522695
                                      ------------------
             TOTAL POTENTIAL ENERGY =    -217.5686687123
               TOTAL KINETIC ENERGY =     108.7119240613
                 VIRIAL RATIO (V/T) =       2.0013321500

          ---------------------------------------
          MULLIKEN AND LOWDIN POPULATION ANALYSES
          ---------------------------------------

               ----- POPULATIONS IN EACH AO -----
                             MULLIKEN      LOWDIN
              1  N  1  S      2.00012     1.99634
              2  N  1  S      0.98049     0.98290
              3  N  1  S      1.01517     1.01653
              4  N  1  X      0.75972     0.72077
              5  N  1  Y      0.75972     0.72077
              6  N  1  Z      0.75961     0.72065
              7  N  1  X      0.24168     0.28063
              8  N  1  Y      0.24168     0.28063
              9  N  1  Z      0.24181     0.28077
             10  N  2  S      2.00012     1.99634
             11  N  2  S      0.98049     0.98290
             12  N  2  S      1.01517     1.01653
             13  N  2  X      0.75972     0.72077
             14  N  2  Y      0.75972     0.72077
             15  N  2  Z      0.75961     0.72065
             16  N  2  X      0.24168     0.28063
             17  N  2  Y      0.24168     0.28063
             18  N  2  Z      0.24181     0.28077

          ----- MULLIKEN ATOMIC OVERLAP POPULATIONS -----
          (OFF-DIAGONAL ELEMENTS NEED TO BE MULTIPLIED BY 2)

             1           2

    1    6.9999000
    2    0.0001000   6.9999000

          TOTAL MULLIKEN AND LOWDIN ATOMIC POPULATIONS
       ATOM         MULL.POP.    CHARGE          LOW.POP.     CHARGE
    1 N             7.000000    0.000000         7.000000    0.000000
    2 N             7.000000    0.000000         7.000000    0.000000

          ---------------------
          ELECTROSTATIC MOMENTS
          ---------------------

 POINT   1           X           Y           Z (BOHR)    CHARGE
                 0.000000    0.000000    4.251883        0.00 (A.U.)
         DX          DY          DZ         /D/  (DEBYE)
     0.000000    0.000000    0.000000    0.000000
 ...... END OF PROPERTY EVALUATION ......
 CPU     0: STEP CPU TIME=     0.00 TOTAL CPU TIME=      154.3 (    2.6 MIN)
 TOTAL WALL CLOCK TIME=      195.9 SECONDS, CPU UTILIZATION IS  78.76%
             119866895  WORDS OF DYNAMIC MEMORY USED
 EXECUTION OF GAMESS TERMINATED NORMALLY Thu Jan 17 19:11:38 2019
 DDI: 305760 bytes (0.3 MB / 0 MWords) used by master data server.

 ----------------------------------------
 CPU timing information for all processes
 ========================================
 0: 144.364 + 10.40 = 154.404
 1: 145.116 + 10.968 = 156.84
 2: 144.304 + 11.20 = 155.324
 3: 143.360 + 11.532 = 154.892
 4: 144.536 + 11.908 = 156.444
 5: 143.264 + 10.68 = 153.332
 6: 144.48 + 9.848 = 153.896
 7: 144.580 + 9.04 = 153.584
 8: 144.576 + 8.448 = 153.24
 9: 143.16 + 9.904 = 152.920
 10: 143.820 + 10.496 = 154.316
 11: 143.52 + 9.64 = 152.116
 12: 0.560 + 5.988 = 6.548
 13: 0.04 + 0.00 = 0.04
 14: 0.00 + 0.08 = 0.08
 15: 0.00 + 0.08 = 0.08
 16: 0.00 + 0.08 = 0.08
 17: 0.08 + 0.00 = 0.08
 18: 0.08 + 0.00 = 0.08
 19: 0.00 + 0.04 = 0.04
 20: 0.04 + 0.04 = 0.08
 21: 0.00 + 0.08 = 0.08
 22: 0.00 + 0.08 = 0.08
 23: 0.00 + 0.08 = 0.08
 ----------------------------------------
 ddikick.x: exited gracefully.
unset echo
----- accounting info -----
Files used on the master node localhost were:
-rw-rw-r-- 1 maho maho    13429 Jan 17 19:11 ./N2.SV/4.5/N2.SV.fullCI.4.5.gamess.dat
-rw------- 1 maho maho     1813 Jan 17 19:08 ./N2.SV/4.5/N2.SV.fullCI.4.5.gamess.F05
-rw-rw-r-- 1 maho maho   180016 Jan 17 19:08 ./N2.SV/4.5/N2.SV.fullCI.4.5.gamess.F08
-rw-rw-r-- 1 maho maho     1376 Jan 17 19:08 ./N2.SV/4.5/N2.SV.fullCI.4.5.gamess.F09
-rw-rw-r-- 1 maho maho  1865040 Jan 17 19:11 ./N2.SV/4.5/N2.SV.fullCI.4.5.gamess.F10
-rw-rw-r-- 1 maho maho 38216480 Jan 17 19:11 ./N2.SV/4.5/N2.SV.fullCI.4.5.gamess.F12
-rw------- 1 maho maho     1813 Jan 17 19:08 ./N2.SV/4.5/N2.SV.fullCI.4.5.gamess.inp
-rw-rw-r-- 1 maho maho    49689 Jan 17 19:11 ./N2.SV/4.5/N2.SV.fullCI.4.5.gamess.log
ls: No match.
ls: No match.
ls: No match.
Thu Jan 17 19:11:41 JST 2019
0.0u 0.0s 3:19.30 0.0% 0+0k 0+8io 0pf+0w
