----- GAMESS execution script 'rungms' -----
This job is running on host bach.ad64.riken.go.jp
under operating system Darwin at 2019年 1月17日 木曜日 17時44分54秒 JST
Available scratch disk space (Kbyte units) at beginning of the job is
Filesystem   1024-blocks       Used Available Capacity iused      ifree %iused  Mounted on
/dev/disk2s2  1953178672 1144740000 808438672    59%  984093 4293983186    0%   /Volumes/Users
GAMESS temporary binary files will be written to ./
GAMESS supplementary output files will be written to ./
Copying input file LiH.631g/1.2/LiH.631g.fullCI.1.2.gamess.inp to your run's scratch directory...
cp LiH.631g/1.2/LiH.631g.fullCI.1.2.gamess.inp .//LiH.631g/1.2/LiH.631g.fullCI.1.2.gamess.F05
unset echo
/Volumes/Users/maho/bin/gamess//ddikick.x /Volumes/Users/maho/bin/gamess//gamess.00.x LiH.631g/1.2/LiH.631g.fullCI.1.2.gamess -ddi 1 1 bach.ad64.riken.go.jp -scr ./

 Distributed Data Interface kickoff program.
 Initiating 1 compute processes on 1 nodes to run the following command:
 /Volumes/Users/maho/bin/gamess//gamess.00.x LiH.631g/1.2/LiH.631g.fullCI.1.2.gamess 

          ******************************************************
          *         GAMESS VERSION = 18 AUG 2016 (R1)          *
          *             FROM IOWA STATE UNIVERSITY             *
          * M.W.SCHMIDT, K.K.BALDRIDGE, J.A.BOATZ, S.T.ELBERT, *
          *   M.S.GORDON, J.H.JENSEN, S.KOSEKI, N.MATSUNAGA,   *
          *          K.A.NGUYEN, S.J.SU, T.L.WINDUS,           *
          *       TOGETHER WITH M.DUPUIS, J.A.MONTGOMERY       *
          *         J.COMPUT.CHEM.  14, 1347-1363(1993)        *
          **************** 64 BIT APPLE VERSION ****************

  SINCE 1993, STUDENTS AND POSTDOCS WORKING AT IOWA STATE UNIVERSITY
  AND ALSO IN THEIR VARIOUS JOBS AFTER LEAVING ISU HAVE MADE IMPORTANT
  CONTRIBUTIONS TO THE CODE:
     IVANA ADAMOVIC, CHRISTINE AIKENS, YURI ALEXEEV, POOJA ARORA,
     ANDREY ASADCHEV, ROB BELL, PRADIPTA BANDYOPADHYAY, JONATHAN BENTZ,
     BRETT BODE, KURT BRORSEN, CALEB CARLIN, GALINA CHABAN, WEI CHEN,
     CHEOL HO CHOI, PAUL DAY, ALBERT DEFUSCO, NUWAN DESILVA, TIM DUDLEY,
     DMITRI FEDOROV, GRAHAM FLETCHER, MARK FREITAG, KURT GLAESEMANN,
     DAN KEMP, GRANT MERRILL, NORIYUKI MINEZAWA, JONATHAN MULLIN,
     TAKESHI NAGATA, SEAN NEDD, HEATHER NETZLOFF, BOSILJKA NJEGIC, RYAN OLSON,
     MIKE PAK, SPENCER PRUITT, LUKE ROSKOP, JIM SHOEMAKER, LYUDMILA SLIPCHENKO,
     TONY SMITH, SAROM SOK LEANG, JIE SONG, TETSUYA TAKETSUGU, SIMON WEBB,
     PENG XU, SOOHAENG YOO, FEDERICO ZAHARIEV

  ADDITIONAL CODE HAS BEEN PROVIDED BY COLLABORATORS IN OTHER GROUPS:
     IOWA STATE UNIVERSITY:
          JOE IVANIC, AARON WEST, LAIMUTIS BYTAUTAS, KLAUS RUEDENBERG
     UNIVERSITY OF TOKYO: KIMIHIKO HIRAO, TAKAHITO NAKAJIMA,
          TAKAO TSUNEDA, MUNEAKI KAMIYA, SUSUMU YANAGISAWA,
          KIYOSHI YAGI, MAHITO CHIBA, SEIKEN TOKURA, NAOAKI KAWAKAMI
     UNIVERSITY OF AARHUS: FRANK JENSEN
     UNIVERSITY OF IOWA: VISVALDAS KAIRYS, HUI LI
     NATIONAL INST. OF STANDARDS AND TECHNOLOGY: WALT STEVENS, DAVID GARMER
     UNIVERSITY OF PISA: BENEDETTA MENNUCCI, JACOPO TOMASI
     UNIVERSITY OF MEMPHIS: HENRY KURTZ, PRAKASHAN KORAMBATH
     UNIVERSITY OF ALBERTA: TOBY ZENG, MARIUSZ KLOBUKOWSKI
     UNIVERSITY OF NEW ENGLAND: MARK SPACKMAN
     MIE UNIVERSITY: HIROAKI UMEDA
     NAT. INST. OF ADVANCED INDUSTRIAL SCIENCE AND TECHNOLOGY: KAZUO KITAURA
     MICHIGAN STATE UNIVERSITY:
          KAROL KOWALSKI, MARTA WLOCH, JEFFREY GOUR, JESSE LUTZ,
          WEI LI, PIOTR PIECUCH
     UNIVERSITY OF SILESIA: MONIKA MUSIAL, STANISLAW KUCHARSKI
     FACULTES UNIVERSITAIRES NOTRE-DAME DE LA PAIX:
          OLIVIER QUINET, BENOIT CHAMPAGNE
     UNIVERSITY OF CALIFORNIA - SANTA BARBARA: BERNARD KIRTMAN
     INSTITUTE FOR MOLECULAR SCIENCE:
          KAZUYA ISHIMURA, MICHIO KATOUDA, AND SHIGERU NAGASE
     UNIVERSITY OF NOTRE DAME: ANNA POMOGAEVA, DAN CHIPMAN
     KYUSHU UNIVERSITY:
          HARUYUKI NAKANO,
          FENG LONG GU, JACEK KORCHOWIEC, MARCIN MAKOWSKI, AND YURIKO AOKI,
          HIROTOSHI MORI AND EISAKU MIYOSHI
     PENNSYLVANIA STATE UNIVERSITY:
          TZVETELIN IORDANOV, CHET SWALINA, JONATHAN SKONE,
          SHARON HAMMES-SCHIFFER
     WASEDA UNIVERSITY:
          MASATO KOBAYASHI, TOMOKO AKAMA, TSUGUKI TOUMA,
          TAKESHI YOSHIKAWA, YASUHIRO IKABATA, JUNJI SEINO,
          YUYA NAKAJIMA, HIROMI NAKAI
     NANJING UNIVERSITY: SHUHUA LI
     UNIVERSITY OF NEBRASKA:
          PEIFENG SU, DEJUN SI, NANDUN THELLAMUREGE, YALI WANG, HUI LI
     UNIVERSITY OF ZURICH: ROBERTO PEVERATI, KIM BALDRIDGE
     N. COPERNICUS UNIVERSITY AND JACKSON STATE UNIVERSITY:
          MARIA BARYSZ
     UNIVERSITY OF COPENHAGEN: Jimmy Kromann, CASPER STEINMANN
     TOKYO INSTITUTE OF TECHNOLOGY: HIROYA NAKATA
     NAGOYA UNIVERSITY: YOSHIO NISHIMOTO, STEPHAN IRLE
     MOSCOW STATE UNIVERSITY: VLADIMIR MIRONOV

 EXECUTION OF GAMESS BEGUN Thu Jan 17 17:44:54 2019

            ECHO OF THE FIRST FEW INPUT CARDS -
 INPUT CARD> $CONTRL SCFTYP=RHF CITYP=ALDET $END                                            
 INPUT CARD> $GUESS  GUESS=HUCKEL $END                                                      
 INPUT CARD> $BASIS GBASIS=N31 NGAUSS=6 NDFUNC=1 NPFUNC=1 $END                              
 INPUT CARD> $CIDET SZ=0 GROUP=C2V NCORE=0 NACT=20 NELS=4 $END                              
 INPUT CARD> $DATA                                                                          
 INPUT CARD>LiH...HF...6-31G* basis                                                         
 INPUT CARD>Cnv   2                                                                         
 INPUT CARD>                                                                                
 INPUT CARD>Li    3.0    0.0      0.0     0.0                                               
 INPUT CARD>H     1.0    0.0      0.0     1.2                                               
 INPUT CARD> $END                                                                           
    1000000 WORDS OF MEMORY AVAILABLE

     BASIS OPTIONS
     -------------
     GBASIS=N31          IGAUSS=       6      POLAR=POPN31  
     NDFUNC=       1     NFFUNC=       0     DIFFSP=       F
     NPFUNC=       1      DIFFS=       F     BASNAM=        


     RUN TITLE
     ---------
 LiH...HF...6-31G* basis                                                         

 THE POINT GROUP OF THE MOLECULE IS CNV     
 THE ORDER OF THE PRINCIPAL AXIS IS     2

 ATOM      ATOMIC                      COORDINATES (BOHR)
           CHARGE         X                   Y                   Z
 LI          3.0     0.0000000000        0.0000000000        0.0000000000
 H           1.0     0.0000000000        0.0000000000        2.2676711853

          INTERNUCLEAR DISTANCES (ANGS.)
          ------------------------------

                1 LI         2 H     

   1 LI      0.0000000    1.2000000 *
   2 H       1.2000000 *  0.0000000  

  * ... LESS THAN  3.000


     ATOMIC BASIS SET
     ----------------
 THE CONTRACTED PRIMITIVE FUNCTIONS HAVE BEEN UNNORMALIZED
 THE CONTRACTED BASIS FUNCTIONS ARE NOW NORMALIZED TO UNITY

  SHELL TYPE  PRIMITIVE        EXPONENT          CONTRACTION COEFFICIENT(S)

 LI        

      1   S       1           642.4189150    0.002142607810
      1   S       2            96.7985153    0.016208871501
      1   S       3            22.0911212    0.077315572504
      1   S       4             6.2010702    0.245786052013
      1   S       5             1.9351177    0.470189004025
      1   S       6             0.6367358    0.345470845019

      2   L       7             2.3249184   -0.035091745735    0.008941508043
      2   L       8             0.6324304   -0.191232843103    0.141009464046
      2   L       9             0.0790534    1.083987794916    0.945363695309

      3   L      10             0.0359620    1.000000000000    1.000000000000

      4   D      11             0.2000000    1.000000000000

 H         

      5   S      12            18.7311370    0.033494604338
      5   S      13             2.8253944    0.234726953484
      5   S      14             0.6401217    0.813757326146

      6   S      15             0.1612778    1.000000000000

      7   P      16             1.1000000    1.000000000000

 TOTAL NUMBER OF BASIS SET SHELLS             =    7
 NUMBER OF CARTESIAN GAUSSIAN BASIS FUNCTIONS =   20
 NUMBER OF ELECTRONS                          =    4
 CHARGE OF MOLECULE                           =    0
 SPIN MULTIPLICITY                            =    1
 NUMBER OF OCCUPIED ORBITALS (ALPHA)          =    2
 NUMBER OF OCCUPIED ORBITALS (BETA )          =    2
 TOTAL NUMBER OF ATOMS                        =    2
 THE NUCLEAR REPULSION ENERGY IS        1.3229431231

 THIS MOLECULE IS RECOGNIZED AS BEING LINEAR,
 ORBITAL LZ DEGENERACY TOLERANCE ETOLLZ= 1.00E-06

     $CONTRL OPTIONS
     ---------------
 SCFTYP=RHF          RUNTYP=ENERGY       EXETYP=RUN     
 MPLEVL=       0     CITYP =ALDET        CCTYP =NONE         VBTYP =NONE    
 DFTTYP=NONE         TDDFT =NONE    
 MULT  =       1     ICHARG=       0     NZVAR =       0     COORD =UNIQUE  
 PP    =NONE         RELWFN=NONE         LOCAL =NONE         NUMGRD=       F
 ISPHER=      -1     NOSYM =       0     MAXIT =      30     UNITS =ANGS    
 PLTORB=       F     MOLPLT=       F     AIMPAC=       F     FRIEND=        
 NPRINT=       7     IREST =       0     GEOM  =INPUT   
 NORMF =       0     NORMP =       0     ITOL  =      20     ICUT  =       9
 INTTYP=BEST         GRDTYP=BEST         QMTTOL= 1.0E-06

     $SYSTEM OPTIONS
     ---------------
  REPLICATED MEMORY=     1000000 WORDS (ON EVERY NODE).
 DISTRIBUTED MEMDDI=           0 MILLION WORDS IN AGGREGATE,
 MEMDDI DISTRIBUTED OVER   1 PROCESSORS IS           0 WORDS/PROCESSOR.
 TOTAL MEMORY REQUESTED ON EACH PROCESSOR=     1000000 WORDS.
 TIMLIM=      525600.00 MINUTES, OR     365.0 DAYS.
 PARALL= F  BALTYP=  DLB     KDIAG=    0  COREFL= F
 MXSEQ2=     300 MXSEQ3=     150  mem10=         0

          ----------------
          PROPERTIES INPUT
          ----------------

     MOMENTS            FIELD           POTENTIAL          DENSITY
 IEMOM =       1   IEFLD =       0   IEPOT =       0   IEDEN =       0
 WHERE =COMASS     WHERE =NUCLEI     WHERE =NUCLEI     WHERE =NUCLEI  
 OUTPUT=BOTH       OUTPUT=BOTH       OUTPUT=BOTH       OUTPUT=BOTH    
 IEMINT=       0   IEFINT=       0                     IEDINT=       0
                                                       MORB  =       0
          EXTRAPOLATION IN EFFECT
          SOSCF IN EFFECT
 ORBITAL PRINTING OPTION: NPREO=     1    20     2     1

     -------------------------------
     INTEGRAL TRANSFORMATION OPTIONS
     -------------------------------
     NWORD  =            0
     CUTOFF = 1.0E-09     MPTRAN =       0
     DIRTRF =       F     AOINTS =DUP     

          ----------------------
          INTEGRAL INPUT OPTIONS
          ----------------------
 NOPK  =       1 NORDER=       0 SCHWRZ=       F

     ------------------------------------------
     THE POINT GROUP IS CNV, NAXIS= 2, ORDER= 4
     ------------------------------------------

     DIMENSIONS OF THE SYMMETRY SUBSPACES ARE
 A1  =   11     A2  =    1     B1  =    4     B2  =    4

 ..... DONE SETTING UP THE RUN .....
 STEP CPU TIME =     0.01 TOTAL CPU TIME =        0.0 (    0.0 MIN)
 TOTAL WALL CLOCK TIME=        0.0 SECONDS, CPU UTILIZATION IS  50.00%

          ********************
          1 ELECTRON INTEGRALS
          ********************
 ...... END OF ONE-ELECTRON INTEGRALS ......
 STEP CPU TIME =     0.00 TOTAL CPU TIME =        0.0 (    0.0 MIN)
 TOTAL WALL CLOCK TIME=        0.0 SECONDS, CPU UTILIZATION IS  50.00%

          -------------
          GUESS OPTIONS
          -------------
          GUESS =HUCKEL            NORB  =       0          NORDER=       0
          MIX   =       F          PRTMO =       F          PUNMO =       F
          TOLZ  = 1.0E-08          TOLE  = 1.0E-05
          SYMDEN=       F          PURIFY=       F

 INITIAL GUESS ORBITALS GENERATED BY HUCKEL   ROUTINE.
 HUCKEL GUESS REQUIRES      4469 WORDS.

 SYMMETRIES FOR INITIAL GUESS ORBITALS FOLLOW.   BOTH SET(S).
     2 ORBITALS ARE OCCUPIED (    1 CORE ORBITALS).
     2=A1       3=A1       4=A1       5=A1       6=A1       7=A1       8=A1  
     9=A1      10=A1      11=A1      12=A2  
 ...... END OF INITIAL ORBITAL SELECTION ......
 STEP CPU TIME =     0.00 TOTAL CPU TIME =        0.0 (    0.0 MIN)
 TOTAL WALL CLOCK TIME=        0.0 SECONDS, CPU UTILIZATION IS  50.00%

                    ----------------------
                    AO INTEGRAL TECHNOLOGY
                    ----------------------
     S,P,L SHELL ROTATED AXIS INTEGRALS, REPROGRAMMED BY
        KAZUYA ISHIMURA (IMS) AND JOSE SIERRA (SYNSTAR).
     S,P,D,L SHELL ROTATED AXIS INTEGRALS PROGRAMMED BY
        KAZUYA ISHIMURA (INSTITUTE FOR MOLECULAR SCIENCE).
     S,P,D,F,G SHELL TO TOTAL QUARTET ANGULAR MOMENTUM SUM 5,
        ERIC PROGRAM BY GRAHAM FLETCHER (ELORET AND NASA ADVANCED
        SUPERCOMPUTING DIVISION, AMES RESEARCH CENTER).
     S,P,D,F,G,L SHELL GENERAL RYS QUADRATURE PROGRAMMED BY
        MICHEL DUPUIS (PACIFIC NORTHWEST NATIONAL LABORATORY).

          --------------------
          2 ELECTRON INTEGRALS
          --------------------

 THE -PK- OPTION IS OFF, THE INTEGRALS ARE NOT IN SUPERMATRIX FORM.
 STORING   15000 INTEGRALS/RECORD ON DISK, USING 12 BYTES/INTEGRAL.
 TWO ELECTRON INTEGRAL EVALUATION REQUIRES   90424 WORDS OF MEMORY.
 II,JST,KST,LST =  1  1  1  1 NREC =         1 INTLOC =    1
 II,JST,KST,LST =  2  1  1  1 NREC =         1 INTLOC =    2
 II,JST,KST,LST =  3  1  1  1 NREC =         1 INTLOC =   34
 II,JST,KST,LST =  4  1  1  1 NREC =         1 INTLOC =  214
 II,JST,KST,LST =  5  1  1  1 NREC =         1 INTLOC = 1189
 II,JST,KST,LST =  6  1  1  1 NREC =         1 INTLOC = 1867
 II,JST,KST,LST =  7  1  1  1 NREC =         1 INTLOC = 2713
 TOTAL NUMBER OF NONZERO TWO-ELECTRON INTEGRALS =                5596
          1 INTEGRAL RECORDS WERE STORED ON DISK FILE  8.
  ...... END OF TWO-ELECTRON INTEGRALS .....
 STEP CPU TIME =     0.03 TOTAL CPU TIME =        0.0 (    0.0 MIN)
 TOTAL WALL CLOCK TIME=        0.0 SECONDS, CPU UTILIZATION IS 100.00%

          --------------------------
                 RHF SCF CALCULATION
          --------------------------

     NUCLEAR ENERGY =         1.3229431231
     MAXIT =   30     NPUNCH=    2
     EXTRAP=T  DAMP=F  SHIFT=F  RSTRCT=F  DIIS=F  DEM=F  SOSCF=T
     DENSITY MATRIX CONV=  1.00E-06
     SOSCF WILL OPTIMIZE      36 ORBITAL ROTATIONS, SOGTOL=   0.250
     MEMORY REQUIRED FOR RHF ITERS=     33224 WORDS.

 ITER EX DEM     TOTAL ENERGY        E CHANGE  DENSITY CHANGE     ORB. GRAD
   1  0  0       -7.8751241841    -7.8751241841   0.218732532   0.000000000
          ---------------START SECOND ORDER SCF---------------
   2  1  0       -7.9369947082    -0.0618705241   0.076223520   0.019109703
   3  2  0       -7.9424612466    -0.0054665383   0.061653013   0.008502109
   4  3  0       -7.9437317053    -0.0012704588   0.005973837   0.001510112
   5  4  0       -7.9437488263    -0.0000171209   0.001481983   0.000253427
   6  5  0       -7.9437491682    -0.0000003420   0.000174899   0.000017656
   7  6  0       -7.9437491736    -0.0000000054   0.000028991   0.000004271
   8  7  0       -7.9437491739    -0.0000000003   0.000002623   0.000000583
   9  8  0       -7.9437491739    -0.0000000000   0.000000394   0.000000073
  10  9  0       -7.9437491739    -0.0000000000   0.000000000   0.000000004

          -----------------
          DENSITY CONVERGED
          -----------------
     TIME TO FORM FOCK OPERATORS=       0.0 SECONDS (       0.0 SEC/ITER)
     TIME TO SOLVE SCF EQUATIONS=       0.0 SECONDS (       0.0 SEC/ITER)

 FINAL RHF ENERGY IS       -7.9437491739 AFTER  10 ITERATIONS

 LZ VALUE ANALYSIS FOR THE MOS
 ----------------------------------------
 MO     1 (    1) HAS LZ(WEIGHT)= 0.00(100.0%) 
 MO     2 (    2) HAS LZ(WEIGHT)= 0.00(100.0%) 
 MO     3 (    3) HAS LZ(WEIGHT)= 0.00(100.0%) 
 MO     4 (    4) HAS LZ(WEIGHT)=-1.00( 50.0%)  1.00( 50.0%) 
 MO     5 (    4) HAS LZ(WEIGHT)=-1.00( 50.0%)  1.00( 50.0%) 
 MO     6 (    5) HAS LZ(WEIGHT)= 0.00(100.0%) 
 MO     7 (    6) HAS LZ(WEIGHT)= 0.00(100.0%) 
 MO     8 (    7) HAS LZ(WEIGHT)=-1.00( 50.0%)  1.00( 50.0%) 
 MO     9 (    7) HAS LZ(WEIGHT)=-1.00( 50.0%)  1.00( 50.0%) 
 MO    10 (    8) HAS LZ(WEIGHT)= 0.00(100.0%) 
 MO    11 (    9) HAS LZ(WEIGHT)=-1.00( 50.0%)  1.00( 50.0%) 
 MO    12 (    9) HAS LZ(WEIGHT)=-1.00( 50.0%)  1.00( 50.0%) 
 MO    13 (   10) HAS LZ(WEIGHT)=-2.00( 50.0%)  2.00( 50.0%) 
 MO    14 (   10) HAS LZ(WEIGHT)=-2.00( 50.0%)  2.00( 50.0%) 
 MO    15 (   11) HAS LZ(WEIGHT)= 0.00(100.0%) 
 MO    16 (   12) HAS LZ(WEIGHT)= 0.00(100.0%) 
 MO    17 (   13) HAS LZ(WEIGHT)= 0.00(100.0%) 
 MO    18 (   14) HAS LZ(WEIGHT)= 0.00(100.0%) 
 MO    19 (   15) HAS LZ(WEIGHT)=-1.00( 50.0%)  1.00( 50.0%) 
 MO    20 (   15) HAS LZ(WEIGHT)=-1.00( 50.0%)  1.00( 50.0%) 

          ------------
          EIGENVECTORS
          ------------

                      1          2          3          4          5
                   -2.4312    -0.3185     0.0151     0.0639     0.0639
                     A1         A1         A1         B2         B1  
    1  LI 1  S    0.995812  -0.181388  -0.116046  -0.000000  -0.000000
    2  LI 1  S   -0.010534   0.248731  -0.378811  -0.000000  -0.000000
    3  LI 1  X    0.000000  -0.000000   0.000000  -0.000000  -0.008659
    4  LI 1  Y    0.000000  -0.000000   0.000000  -0.008659  -0.000000
    5  LI 1  Z   -0.014764   0.342942  -0.104468  -0.000000  -0.000000
    6  LI 1  S    0.000196   0.112784   1.037393  -0.000000  -0.000000
    7  LI 1  X    0.000000  -0.000000   0.000000  -0.000000   1.006140
    8  LI 1  Y    0.000000  -0.000000   0.000000   1.006140  -0.000000
    9  LI 1  Z    0.006903  -0.074996  -0.508429  -0.000000  -0.000000
   10  LI 1 XX    0.007698  -0.007669   0.052252  -0.000000  -0.000000
   11  LI 1 YY    0.007698  -0.007669   0.052252  -0.000000  -0.000000
   12  LI 1 ZZ    0.003908   0.047659   0.112645  -0.000000  -0.000000
   13  LI 1 XY    0.000000  -0.000000   0.000000  -0.000000  -0.000000
   14  LI 1 XZ    0.000000  -0.000000   0.000000  -0.000000  -0.025923
   15  LI 1 YZ    0.000000  -0.000000   0.000000  -0.025923  -0.000000
   16  H  2  S    0.008852   0.329986  -0.064844  -0.000000  -0.000000
   17  H  2  S    0.011171   0.326232  -0.174453  -0.000000  -0.000000
   18  H  2  X    0.000000  -0.000000   0.000000  -0.000000   0.008165
   19  H  2  Y    0.000000  -0.000000   0.000000   0.008165  -0.000000
   20  H  2  Z   -0.001719  -0.016018   0.005661  -0.000000  -0.000000

                      6          7          8          9         10
                    0.1354     0.1986     0.2264     0.2264     0.4386
                     A1         A1         B2         B1         A1  
    1  LI 1  S   -0.022311   0.011732   0.000000   0.000000   0.177314
    2  LI 1  S   -0.618317   2.514711   0.000000   0.000000   2.271907
    3  LI 1  X    0.000000  -0.000000   0.000000   1.668955  -0.000000
    4  LI 1  Y    0.000000  -0.000000   1.668955   0.000000  -0.000000
    5  LI 1  Z   -0.633323  -1.057791   0.000000   0.000000   1.356317
    6  LI 1  S    1.004897  -2.005294   0.000000   0.000000  -0.941211
    7  LI 1  X    0.000000  -0.000000   0.000000  -1.336667  -0.000000
    8  LI 1  Y    0.000000  -0.000000  -1.336667   0.000000  -0.000000
    9  LI 1  Z    1.302694   0.682356   0.000000   0.000000  -0.569044
   10  LI 1 XX    0.097055  -0.247039   0.000000   0.000000   0.029988
   11  LI 1 YY    0.097055  -0.247039   0.000000   0.000000   0.029988
   12  LI 1 ZZ    0.095454  -0.222960   0.000000   0.000000  -0.719044
   13  LI 1 XY    0.000000  -0.000000   0.000000   0.000000  -0.000000
   14  LI 1 XZ    0.000000  -0.000000   0.000000  -0.055493  -0.000000
   15  LI 1 YZ    0.000000  -0.000000  -0.055493   0.000000  -0.000000
   16  H  2  S   -0.095659  -0.032694   0.000000   0.000000  -0.098503
   17  H  2  S   -0.402630   0.259192   0.000000   0.000000  -1.084765
   18  H  2  X    0.000000  -0.000000   0.000000   0.013350  -0.000000
   19  H  2  Y    0.000000  -0.000000   0.013350   0.000000  -0.000000
   20  H  2  Z    0.000249  -0.002324   0.000000   0.000000   0.007054

                     11         12         13         14         15
                    0.5725     0.5725     0.5900     0.5900     0.9719
                     B1         B2         A2         A1         A1  
    1  LI 1  S    0.000000   0.000000   0.000000   0.000000   0.609186
    2  LI 1  S    0.000000   0.000000   0.000000   0.000000   6.402257
    3  LI 1  X    0.086925   0.000000   0.000000   0.000000  -0.000000
    4  LI 1  Y    0.000000   0.086925   0.000000   0.000000  -0.000000
    5  LI 1  Z    0.000000   0.000000   0.000000   0.000000   2.980594
    6  LI 1  S    0.000000   0.000000   0.000000   0.000000  -1.899532
    7  LI 1  X   -0.045878   0.000000   0.000000   0.000000  -0.000000
    8  LI 1  Y    0.000000  -0.045878   0.000000   0.000000  -0.000000
    9  LI 1  Z    0.000000   0.000000   0.000000   0.000000  -0.863277
   10  LI 1 XX    0.000000   0.000000   0.000000   0.866025  -1.790188
   11  LI 1 YY    0.000000   0.000000   0.000000  -0.866025  -1.790188
   12  LI 1 ZZ    0.000000   0.000000   0.000000   0.000000   0.450653
   13  LI 1 XY    0.000000   0.000000   1.000000   0.000000  -0.000000
   14  LI 1 XZ    0.999977   0.000000   0.000000   0.000000  -0.000000
   15  LI 1 YZ    0.000000   0.999977   0.000000   0.000000  -0.000000
   16  H  2  S    0.000000   0.000000   0.000000   0.000000  -0.180510
   17  H  2  S    0.000000   0.000000   0.000000   0.000000  -3.603446
   18  H  2  X   -0.004963   0.000000   0.000000   0.000000  -0.000000
   19  H  2  Y    0.000000  -0.004963   0.000000   0.000000  -0.000000
   20  H  2  Z    0.000000   0.000000   0.000000   0.000000   0.069950

                     16         17         18         19         20
                    1.2174     1.3688     2.5395     2.6651     2.6651
                     A1         A1         A1         B1         B2  
    1  LI 1  S   -0.105453   0.164690   0.305801  -0.000000  -0.000000
    2  LI 1  S    7.502204   2.823944   2.083775  -0.000000  -0.000000
    3  LI 1  X   -0.000000   0.000000   0.000000  -0.266801  -0.000000
    4  LI 1  Y   -0.000000   0.000000   0.000000  -0.000000  -0.266801
    5  LI 1  Z   -0.951819  -0.036044   0.910457  -0.000000  -0.000000
    6  LI 1  S   -2.406986  -0.627187  -0.645379  -0.000000  -0.000000
    7  LI 1  X   -0.000000   0.000000   0.000000   0.141624  -0.000000
    8  LI 1  Y   -0.000000   0.000000   0.000000  -0.000000   0.141624
    9  LI 1  Z    0.201148   0.311697  -0.318443  -0.000000  -0.000000
   10  LI 1 XX   -2.689260  -0.669767  -0.439208  -0.000000  -0.000000
   11  LI 1 YY   -2.689260  -0.669767  -0.439208  -0.000000  -0.000000
   12  LI 1 ZZ   -3.258706  -1.138388  -0.165180  -0.000000  -0.000000
   13  LI 1 XY   -0.000000   0.000000   0.000000  -0.000000  -0.000000
   14  LI 1 XZ   -0.000000   0.000000   0.000000  -0.334179  -0.000000
   15  LI 1 YZ   -0.000000   0.000000   0.000000  -0.000000  -0.334179
   16  H  2  S   -0.247026   1.401783   0.228947  -0.000000  -0.000000
   17  H  2  S    1.524049  -1.493023  -1.209837  -0.000000  -0.000000
   18  H  2  X   -0.000000   0.000000   0.000000   1.068159  -0.000000
   19  H  2  Y   -0.000000   0.000000   0.000000  -0.000000   1.068159
   20  H  2  Z    0.094627  -0.098537   1.055296  -0.000000  -0.000000
 ...... END OF RHF CALCULATION ......
 STEP CPU TIME =     0.00 TOTAL CPU TIME =        0.0 (    0.0 MIN)
 TOTAL WALL CLOCK TIME=        0.0 SECONDS, CPU UTILIZATION IS  80.00%

     ----------------------------------------------------------------
     PROPERTY VALUES FOR THE RHF   SELF-CONSISTENT FIELD WAVEFUNCTION
     ----------------------------------------------------------------

          -----------------
          ENERGY COMPONENTS
          -----------------

         WAVEFUNCTION NORMALIZATION =       1.0000000000

                ONE ELECTRON ENERGY =     -13.0340002309
                TWO ELECTRON ENERGY =       3.7673079339
           NUCLEAR REPULSION ENERGY =       1.3229431231
                                      ------------------
                       TOTAL ENERGY =      -7.9437491739

 ELECTRON-ELECTRON POTENTIAL ENERGY =       3.7673079339
  NUCLEUS-ELECTRON POTENTIAL ENERGY =     -21.2652389384
   NUCLEUS-NUCLEUS POTENTIAL ENERGY =       1.3229431231
                                      ------------------
             TOTAL POTENTIAL ENERGY =     -16.1749878814
               TOTAL KINETIC ENERGY =       8.2312387075
                 VIRIAL RATIO (V/T) =       1.9650733573

  ...... PI ENERGY ANALYSIS ......

 ENERGY ANALYSIS:
            FOCK ENERGY=     -5.4993843645
          BARE H ENERGY=    -13.0340002309
     ELECTRONIC ENERGY =     -9.2666922977
         KINETIC ENERGY=      8.2312387075
          N-N REPULSION=      1.3229431231
           TOTAL ENERGY=     -7.9437491746
        SIGMA PART(1+2)=     -9.2666922977
               (K,V1,2)=      8.2312387075    -21.2652389384      3.7673079332
           PI PART(1+2)=      0.0000000000
               (K,V1,2)=      0.0000000000      0.0000000000      0.0000000000
  SIGMA SKELETON, ERROR=     -7.9437491746      0.0000000000
             MIXED PART= 0.00000E+00 0.00000E+00 0.00000E+00 0.00000E+00
 ...... END OF PI ENERGY ANALYSIS ......

          ---------------------------------------
          MULLIKEN AND LOWDIN POPULATION ANALYSES
          ---------------------------------------

               ----- POPULATIONS IN EACH AO -----
                             MULLIKEN      LOWDIN
              1  LI 1  S      1.99604     1.96786
              2  LI 1  S      0.32927     0.18524
              3  LI 1  X      0.00000     0.00000
              4  LI 1  Y      0.00000     0.00000
              5  LI 1  Z      0.41505     0.32196
              6  LI 1  S      0.13297     0.15791
              7  LI 1  X      0.00000     0.00000
              8  LI 1  Y      0.00000     0.00000
              9  LI 1  Z     -0.05915     0.04224
             10  LI 1 XX     -0.00436     0.04576
             11  LI 1 YY     -0.00436     0.04576
             12  LI 1 ZZ      0.06586     0.18782
             13  LI 1 XY      0.00000     0.00000
             14  LI 1 XZ      0.00000     0.00000
             15  LI 1 YZ      0.00000     0.00000
             16  H  2  S      0.51112     0.46910
             17  H  2  S      0.61657     0.56904
             18  H  2  X      0.00000     0.00000
             19  H  2  Y      0.00000     0.00000
             20  H  2  Z      0.00100     0.00733

          ----- MULLIKEN ATOMIC OVERLAP POPULATIONS -----
          (OFF-DIAGONAL ELEMENTS NEED TO BE MULTIPLIED BY 2)

             1           2

    1    2.4579191
    2    0.4133967   0.7152875

          TOTAL MULLIKEN AND LOWDIN ATOMIC POPULATIONS
       ATOM         MULL.POP.    CHARGE          LOW.POP.     CHARGE
    1 LI            2.871316    0.128684         2.954536    0.045464
    2 H             1.128684   -0.128684         1.045464   -0.045464

          ---------------------
          ELECTROSTATIC MOMENTS
          ---------------------

 POINT   1           X           Y           Z (BOHR)    CHARGE
                 0.000000    0.000000    0.284829        0.00 (A.U.)
         DX          DY          DZ         /D/  (DEBYE)
     0.000000    0.000000   -5.220551    5.220551
 ...... END OF PROPERTY EVALUATION ......
 STEP CPU TIME =     0.00 TOTAL CPU TIME =        0.0 (    0.0 MIN)
 TOTAL WALL CLOCK TIME=        0.0 SECONDS, CPU UTILIZATION IS  80.00%

 DETERMINANT CI OPTIONS   NRNFG   NPFLG
 INTEGRAL TRANSFORMATION    1       0
 DIAGONALIZE HAMILTONIAN    1       0
 FORM 1E- DENSITY MATRIX    1       0
 FORM 2E- DENSITY MATRIX    0       0

     --------------------------------------------------
          AMES LABORATORY DETERMINANTAL FULL CI
     PROGRAM WRITTEN BY JOE IVANIC AND KLAUS RUEDENBERG
     --------------------------------------------------

 THE POINT GROUP                  =   C2V     
 THE STATE SYMMETRY               =   A1      
 NUMBER OF CORE ORBITALS          =    0
 NUMBER OF ACTIVE ORBITALS        =   20
 NUMBER OF ALPHA ELECTRONS        =    2 (   2 ACTIVE)
 NUMBER OF BETA ELECTRONS         =    2 (   2 ACTIVE)
 NUMBER OF OCCUPIED ORBITALS      =   20
 NUMBER OF CI STATES REQUESTED    =    1
 NUMBER OF CI STARTING VECTORS    =    1
 MAX. NO. OF CI EXPANSION VECTORS =   10
 SIZE OF INITIAL CI GUESS MATRIX  =  300
 MAX. NO. OF CI ITERS/STATE       =  100
 CI DIAGONALIZATION CRITERION     = 1.00E-06
 CI PROPERTIES WILL BE FOUND FOR ROOT NUMBER   1
 1E- DENSITY MATRIX OPTIONS ARE 1

 CORRELATION ENERGY ANALYSIS      =    F

 SYMMETRIES FOR THE   0 CORE,  20 ACTIVE ARE

   ACTIVE= A1    A1    A1    B2    B1    A1    A1    B2    B1    A1  
           B1    B2    A2    A1    A1    A1    A1    A1    B1    B2  

     --------------------------------------------
     PARTIAL TWO ELECTRON INTEGRAL TRANSFORMATION
     --------------------------------------------

 NUMBER OF CORE MOLECULAR ORBITALS     =    0
 NUMBER OF OCCUPIED MOLECULAR ORBITALS =   20
 TOTAL NUMBER OF MOLECULAR ORBITALS    =   20
 TOTAL NUMBER OF ATOMIC ORBITALS       =   20
 THRESHOLD FOR KEEPING TRANSFORMED 2E- INTEGRALS = 1.000E-09
 AO INTEGRALS WILL BE READ IN FROM DISK...

 PLAN A: REQUIREMENTS FOR FULLY IN-MEMORY TRANSFORMATION:
 # OF WORDS AVAILABLE =              1000000
 # OF WORDS NEEDED    =               146042

 CHOOSING IN MEMORY PARTIAL TRANSFORMATION...
 TOTAL NUMBER OF TRANSFORMED 2E- INTEGRALS KEPT =         5962
 ... END OF INTEGRAL TRANSFORMATION ...
 STEP CPU TIME =     0.01 TOTAL CPU TIME =        0.0 (    0.0 MIN)
 TOTAL WALL CLOCK TIME=        0.1 SECONDS, CPU UTILIZATION IS  83.33%

     --------------------------------------------------
          AMES LABORATORY DETERMINANTAL FULL CI
     PROGRAM WRITTEN BY JOE IVANIC AND KLAUS RUEDENBERG
     --------------------------------------------------

 THE NUMBER OF DETERMINANTS HAVING SPACE SYMMETRY A1 
 IN POINT GROUP C2V  WITH SZ=  0.0 IS           9826
 THE DETERMINANT FULL CI REQUIRES          451749 WORDS
 INITIAL CI VECTOR GUESS TIME  :          0.1
 INITIAL FULL CI ITERATION TIME:          0.0

 ITERATION      ENERGY           GRADIENT
     0       -7.9695129393     0.15694768
     1       -7.9740689923     0.01215049
     2       -7.9741476256     0.00458105
     3       -7.9741574199     0.00130899
     4       -7.9741590444     0.00059301
     5       -7.9741592688     0.00016431
     6       -7.9741592847     0.00004310
     7       -7.9741592858     0.00001175
     8       -7.9741592859     0.00000266
     9       -7.9741592859     0.00000046

 CONVERGED STATE    1 ENERGY=       -7.9741592859 IN    9 ITERS

 ALL STATES CONVERGED.

 CI EIGENVECTORS WILL BE LABELED IN GROUP=C2V     
 PRINTING CI COEFFICIENTS LARGER THAN 5.000E-02

 STATE   1  ENERGY=        -7.9741592859  S=  0.00  SZ=  0.00  SPACE SYM=A1  

        ALPHA         |        BETA          | CI COEFFICIENT
----------------------|----------------------|---------------
 11000000000000000000 | 11000000000000000000 |   0.9885726572
 ..... DONE WITH DETERMINANT CI COMPUTATION .....
 STEP CPU TIME =     0.27 TOTAL CPU TIME =        0.3 (    0.0 MIN)
 TOTAL WALL CLOCK TIME=        0.4 SECONDS, CPU UTILIZATION IS  78.05%

     ---------------------------
     ONE PARTICLE DENSITY MATRIX
     ---------------------------

 DENSITY MATRIX WILL BE SAVED FOR   1-TH STATE WITH S= 0.00

 CI EIGENSTATE   1 TOTAL ENERGY =       -7.9741592859

          NATURAL ORBITALS IN ATOMIC ORBITAL BASIS
          ----------------------------------------

                      1          2          3          4          5
                    1.9996     1.9568     0.0258     0.0074     0.0074
                     A1         A1         A1         B1         B2  
    1  LI 1  S    1.000888  -0.148496   0.019081  -0.000000  -0.000000
    2  LI 1  S   -0.016188   0.254483  -0.595632  -0.000000  -0.000000
    3  LI 1  X    0.000000  -0.000000  -0.000000   0.854435  -0.000000
    4  LI 1  Y    0.000000  -0.000000  -0.000000  -0.000000   0.854435
    5  LI 1  Z   -0.027986   0.337759  -0.397442  -0.000000  -0.000000
    6  LI 1  S   -0.005156   0.129457  -0.375875  -0.000000  -0.000000
    7  LI 1  X    0.000000  -0.000000  -0.000000  -0.273788  -0.000000
    8  LI 1  Y    0.000000  -0.000000  -0.000000  -0.000000  -0.273788
    9  LI 1  Z    0.010006  -0.071612  -0.075071  -0.000000  -0.000000
   10  LI 1 XX    0.007170  -0.003921  -0.001219  -0.000000  -0.000000
   11  LI 1 YY    0.007170  -0.003921  -0.001219  -0.000000  -0.000000
   12  LI 1 ZZ    0.000528   0.046473   0.064217  -0.000000  -0.000000
   13  LI 1 XY    0.000000  -0.000000  -0.000000  -0.000000  -0.000000
   14  LI 1 XZ    0.000000  -0.000000  -0.000000   0.544384  -0.000000
   15  LI 1 YZ    0.000000  -0.000000  -0.000000  -0.000000   0.544384
   16  H  2  S   -0.002503   0.341674   0.845258  -0.000000  -0.000000
   17  H  2  S    0.003130   0.301270   0.215486  -0.000000  -0.000000
   18  H  2  X    0.000000  -0.000000  -0.000000   0.319782  -0.000000
   19  H  2  Y    0.000000  -0.000000  -0.000000  -0.000000   0.319782
   20  H  2  Z   -0.001489  -0.016303  -0.033941  -0.000000  -0.000000

                      6          7          8          9         10
                    0.0016     0.0004     0.0003     0.0002     0.0002
                     A1         A1         A1         B1         B2  
    1  LI 1  S    0.087094  -0.176845   0.459666  -0.000000  -0.000000
    2  LI 1  S    2.084747  -0.231233  -1.874415  -0.000000  -0.000000
    3  LI 1  X    0.000000   0.000000   0.000000  -0.735794  -0.000000
    4  LI 1  Y    0.000000   0.000000   0.000000  -0.000000  -0.735794
    5  LI 1  Z    0.717434  -0.073045   3.084450  -0.000000  -0.000000
    6  LI 1  S   -0.776397  -0.722960   0.986183  -0.000000  -0.000000
    7  LI 1  X    0.000000   0.000000   0.000000   0.224621  -0.000000
    8  LI 1  Y    0.000000   0.000000   0.000000  -0.000000   0.224621
    9  LI 1  Z   -0.408294  -0.408120  -1.035053  -0.000000  -0.000000
   10  LI 1 XX   -0.192528  -0.183155   0.797559  -0.000000  -0.000000
   11  LI 1 YY   -0.192528  -0.183155   0.797559  -0.000000  -0.000000
   12  LI 1 ZZ   -0.366856   0.098780   2.188933  -0.000000  -0.000000
   13  LI 1 XY    0.000000   0.000000   0.000000  -0.000000  -0.000000
   14  LI 1 XZ    0.000000   0.000000   0.000000  -0.253606  -0.000000
   15  LI 1 YZ    0.000000   0.000000   0.000000  -0.000000  -0.253606
   16  H  2  S    0.447387  -1.054296  -0.032149  -0.000000  -0.000000
   17  H  2  S   -1.253012   1.795918  -3.061596  -0.000000  -0.000000
   18  H  2  X    0.000000   0.000000   0.000000   0.960613  -0.000000
   19  H  2  Y    0.000000   0.000000   0.000000  -0.000000   0.960613
   20  H  2  Z   -0.713288  -0.413724   0.153990  -0.000000  -0.000000

                     11         12         13         14         15
                    0.0001     0.0000     0.0000     0.0000     0.0000
                     A1         B2         B1         A1         A2  
    1  LI 1  S    0.176626  -0.000000  -0.000000   0.000000   0.000000
    2  LI 1  S    1.520604  -0.000000  -0.000000   0.000000   0.000000
    3  LI 1  X   -0.000000  -0.000000  -1.238764   0.000000   0.000000
    4  LI 1  Y   -0.000000  -1.238764  -0.000000   0.000000   0.000000
    5  LI 1  Z    0.878227  -0.000000  -0.000000   0.000000   0.000000
    6  LI 1  S   -1.456270  -0.000000  -0.000000   0.000000   0.000000
    7  LI 1  X   -0.000000  -0.000000   1.332462   0.000000   0.000000
    8  LI 1  Y   -0.000000   1.332462  -0.000000   0.000000   0.000000
    9  LI 1  Z   -0.959153  -0.000000  -0.000000   0.000000   0.000000
   10  LI 1 XX    0.207922  -0.000000  -0.000000  -0.866025   0.000000
   11  LI 1 YY    0.207922  -0.000000  -0.000000   0.866025   0.000000
   12  LI 1 ZZ    0.043799  -0.000000  -0.000000   0.000000   0.000000
   13  LI 1 XY   -0.000000  -0.000000  -0.000000   0.000000   1.000000
   14  LI 1 XZ   -0.000000  -0.000000   0.583880   0.000000   0.000000
   15  LI 1 YZ   -0.000000   0.583880  -0.000000   0.000000   0.000000
   16  H  2  S   -0.085383  -0.000000  -0.000000   0.000000   0.000000
   17  H  2  S   -0.456775  -0.000000  -0.000000   0.000000   0.000000
   18  H  2  X   -0.000000  -0.000000  -0.192358   0.000000   0.000000
   19  H  2  Y   -0.000000  -0.192358  -0.000000   0.000000   0.000000
   20  H  2  Z    0.534480  -0.000000  -0.000000   0.000000   0.000000

                     16         17         18         19         20
                    0.0000     0.0000     0.0000     0.0000     0.0000
                     A1         B2         B1         A1         A1  
    1  LI 1  S    0.096509   0.000000   0.000000   0.501596   0.080598
    2  LI 1  S    5.567402   0.000000   0.000000   8.841904   1.357029
    3  LI 1  X   -0.000000   0.000000  -0.241326   0.000000  -0.000000
    4  LI 1  Y   -0.000000  -0.241326   0.000000   0.000000  -0.000000
    5  LI 1  Z    0.820782   0.000000   0.000000   1.317101   0.788707
    6  LI 1  S   -1.244895   0.000000   0.000000  -3.351796   0.237440
    7  LI 1  X   -0.000000   0.000000   0.959317   0.000000  -0.000000
    8  LI 1  Y   -0.000000   0.959317   0.000000   0.000000  -0.000000
    9  LI 1  Z   -0.776120   0.000000   0.000000   0.196994  -0.870784
   10  LI 1 XX   -1.962781   0.000000   0.000000  -2.437821  -0.779156
   11  LI 1 YY   -1.962781   0.000000   0.000000  -2.437821  -0.779156
   12  LI 1 ZZ   -2.498653   0.000000   0.000000  -1.074109   0.628756
   13  LI 1 XY   -0.000000   0.000000   0.000000   0.000000  -0.000000
   14  LI 1 XZ   -0.000000   0.000000  -0.643269   0.000000  -0.000000
   15  LI 1 YZ   -0.000000  -0.643269   0.000000   0.000000  -0.000000
   16  H  2  S    0.153060   0.000000   0.000000   0.011439  -0.263303
   17  H  2  S   -0.043730   0.000000   0.000000  -2.302023  -0.852971
   18  H  2  X   -0.000000   0.000000   0.281413   0.000000  -0.000000
   19  H  2  Y   -0.000000   0.281413   0.000000   0.000000  -0.000000
   20  H  2  Z    0.269009   0.000000   0.000000   0.266584   0.058060
 ..... DONE WITH ONE PARTICLE DENSITY MATRIX .....
 STEP CPU TIME =     0.00 TOTAL CPU TIME =        0.3 (    0.0 MIN)
 TOTAL WALL CLOCK TIME=        0.4 SECONDS, CPU UTILIZATION IS  78.05%

     --------------------------------------------------------
     ALDET CI PROPERTIES...FOR THE WAVEFUNCTION OF STATE    1
               USING THE EXPECTATION VALUE DENSITY
     --------------------------------------------------------

          -----------------
          ENERGY COMPONENTS
          -----------------

         WAVEFUNCTION NORMALIZATION =       1.0000000000

                ONE ELECTRON ENERGY =     -12.9989252509
                TWO ELECTRON ENERGY =       3.7018228419
           NUCLEAR REPULSION ENERGY =       1.3229431231
                                      ------------------
                       TOTAL ENERGY =      -7.9741592859

 ELECTRON-ELECTRON POTENTIAL ENERGY =       3.7018228419
  NUCLEUS-ELECTRON POTENTIAL ENERGY =     -21.2551835270
   NUCLEUS-NUCLEUS POTENTIAL ENERGY =       1.3229431231
                                      ------------------
             TOTAL POTENTIAL ENERGY =     -16.2304175620
               TOTAL KINETIC ENERGY =       8.2562582761
                 VIRIAL RATIO (V/T) =       1.9658321021

          ---------------------------------------
          MULLIKEN AND LOWDIN POPULATION ANALYSES
          ---------------------------------------

               ----- POPULATIONS IN EACH AO -----
                             MULLIKEN      LOWDIN
              1  LI 1  S      1.99514     1.96719
              2  LI 1  S      0.34516     0.19304
              3  LI 1  X      0.00436     0.00326
              4  LI 1  Y      0.00436     0.00326
              5  LI 1  Z      0.39265     0.30029
              6  LI 1  S      0.15781     0.17335
              7  LI 1  X     -0.00088     0.00017
              8  LI 1  Y     -0.00088     0.00017
              9  LI 1  Z     -0.05381     0.04042
             10  LI 1 XX     -0.00181     0.05017
             11  LI 1 YY     -0.00181     0.05017
             12  LI 1 ZZ      0.06280     0.18399
             13  LI 1 XY      0.00002     0.00002
             14  LI 1 XZ      0.00261     0.00254
             15  LI 1 YZ      0.00261     0.00254
             16  H  2  S      0.53021     0.47779
             17  H  2  S      0.55620     0.53971
             18  H  2  X      0.00157     0.00171
             19  H  2  Y      0.00157     0.00171
             20  H  2  Z      0.00211     0.00853

          ----- MULLIKEN ATOMIC OVERLAP POPULATIONS -----
          (OFF-DIAGONAL ELEMENTS NEED TO BE MULTIPLIED BY 2)

             1           2

    1    2.5223751
    2    0.3859666   0.7056916

          TOTAL MULLIKEN AND LOWDIN ATOMIC POPULATIONS
       ATOM         MULL.POP.    CHARGE          LOW.POP.     CHARGE
    1 LI            2.908342    0.091658         2.970569    0.029431
    2 H             1.091658   -0.091658         1.029431   -0.029431

          ---------------------
          ELECTROSTATIC MOMENTS
          ---------------------

 POINT   1           X           Y           Z (BOHR)    CHARGE
                 0.000000    0.000000    0.284829       -0.00 (A.U.)
         DX          DY          DZ         /D/  (DEBYE)
     0.000000    0.000000   -5.040529    5.040529
 ...... END OF PROPERTY EVALUATION ......
 STEP CPU TIME =     0.01 TOTAL CPU TIME =        0.3 (    0.0 MIN)
 TOTAL WALL CLOCK TIME=        0.4 SECONDS, CPU UTILIZATION IS  80.49%
               580000  WORDS OF DYNAMIC MEMORY USED
 EXECUTION OF GAMESS TERMINATED NORMALLY Thu Jan 17 17:44:54 2019
 DDI: 263640 bytes (0.3 MB / 0 MWords) used by master data server.

 ----------------------------------------
 CPU timing information for all processes
 ========================================
 0: 0.261 + 0.75 = 0.336
 1: 0.11 + 0.59 = 0.71
 ----------------------------------------
 ddikick.x: exited gracefully.
unset echo
----- accounting info -----
Files used on the master node bach.ad64.riken.go.jp were:
-rw-------  1 maho  staff      280  1 17 17:44 .//LiH.631g/1.2/LiH.631g.fullCI.1.2.gamess.F05
-rw-r--r--  1 maho  staff   180016  1 17 17:44 .//LiH.631g/1.2/LiH.631g.fullCI.1.2.gamess.F08
-rw-r--r--  1 maho  staff   181704  1 17 17:44 .//LiH.631g/1.2/LiH.631g.fullCI.1.2.gamess.F09
-rw-r--r--  1 maho  staff  1832320  1 17 17:44 .//LiH.631g/1.2/LiH.631g.fullCI.1.2.gamess.F10
-rw-r--r--  1 maho  staff    78640  1 17 17:44 .//LiH.631g/1.2/LiH.631g.fullCI.1.2.gamess.F12
-rw-r--r--  1 maho  staff    14499  1 17 17:44 .//LiH.631g/1.2/LiH.631g.fullCI.1.2.gamess.dat
-rw-------  1 maho  staff      280  1 17 17:44 .//LiH.631g/1.2/LiH.631g.fullCI.1.2.gamess.inp
-rw-r--r--  1 maho  staff    42466  1 17 17:44 .//LiH.631g/1.2/LiH.631g.fullCI.1.2.gamess.log
ls: No match.
ls: No match.
ls: No match.
2019年 1月17日 木曜日 17時44分57秒 JST
0.395u 0.268s 0:03.67 17.7%	0+0k 0+0io 0pf+0w
