----- GAMESS execution script 'rungms' -----
This job is running on host bach.ad64.riken.go.jp
under operating system Darwin at 2019年 1月17日 木曜日 17時53分46秒 JST
Available scratch disk space (Kbyte units) at beginning of the job is
Filesystem   1024-blocks       Used Available Capacity iused      ifree %iused  Mounted on
/dev/disk2s2  1953178672 1144747464 808431208    59%  984671 4293982608    0%   /Volumes/Users
GAMESS temporary binary files will be written to ./
GAMESS supplementary output files will be written to ./
Copying input file LiH.631g/4.9/LiH.631g.CCSDT.4.9.gamess.inp to your run's scratch directory...
cp LiH.631g/4.9/LiH.631g.CCSDT.4.9.gamess.inp .//LiH.631g/4.9/LiH.631g.CCSDT.4.9.gamess.F05
unset echo
/Volumes/Users/maho/bin/gamess//ddikick.x /Volumes/Users/maho/bin/gamess//gamess.00.x LiH.631g/4.9/LiH.631g.CCSDT.4.9.gamess -ddi 1 1 bach.ad64.riken.go.jp -scr ./

 Distributed Data Interface kickoff program.
 Initiating 1 compute processes on 1 nodes to run the following command:
 /Volumes/Users/maho/bin/gamess//gamess.00.x LiH.631g/4.9/LiH.631g.CCSDT.4.9.gamess 

          ******************************************************
          *         GAMESS VERSION = 18 AUG 2016 (R1)          *
          *             FROM IOWA STATE UNIVERSITY             *
          * M.W.SCHMIDT, K.K.BALDRIDGE, J.A.BOATZ, S.T.ELBERT, *
          *   M.S.GORDON, J.H.JENSEN, S.KOSEKI, N.MATSUNAGA,   *
          *          K.A.NGUYEN, S.J.SU, T.L.WINDUS,           *
          *       TOGETHER WITH M.DUPUIS, J.A.MONTGOMERY       *
          *         J.COMPUT.CHEM.  14, 1347-1363(1993)        *
          **************** 64 BIT APPLE VERSION ****************

  SINCE 1993, STUDENTS AND POSTDOCS WORKING AT IOWA STATE UNIVERSITY
  AND ALSO IN THEIR VARIOUS JOBS AFTER LEAVING ISU HAVE MADE IMPORTANT
  CONTRIBUTIONS TO THE CODE:
     IVANA ADAMOVIC, CHRISTINE AIKENS, YURI ALEXEEV, POOJA ARORA,
     ANDREY ASADCHEV, ROB BELL, PRADIPTA BANDYOPADHYAY, JONATHAN BENTZ,
     BRETT BODE, KURT BRORSEN, CALEB CARLIN, GALINA CHABAN, WEI CHEN,
     CHEOL HO CHOI, PAUL DAY, ALBERT DEFUSCO, NUWAN DESILVA, TIM DUDLEY,
     DMITRI FEDOROV, GRAHAM FLETCHER, MARK FREITAG, KURT GLAESEMANN,
     DAN KEMP, GRANT MERRILL, NORIYUKI MINEZAWA, JONATHAN MULLIN,
     TAKESHI NAGATA, SEAN NEDD, HEATHER NETZLOFF, BOSILJKA NJEGIC, RYAN OLSON,
     MIKE PAK, SPENCER PRUITT, LUKE ROSKOP, JIM SHOEMAKER, LYUDMILA SLIPCHENKO,
     TONY SMITH, SAROM SOK LEANG, JIE SONG, TETSUYA TAKETSUGU, SIMON WEBB,
     PENG XU, SOOHAENG YOO, FEDERICO ZAHARIEV

  ADDITIONAL CODE HAS BEEN PROVIDED BY COLLABORATORS IN OTHER GROUPS:
     IOWA STATE UNIVERSITY:
          JOE IVANIC, AARON WEST, LAIMUTIS BYTAUTAS, KLAUS RUEDENBERG
     UNIVERSITY OF TOKYO: KIMIHIKO HIRAO, TAKAHITO NAKAJIMA,
          TAKAO TSUNEDA, MUNEAKI KAMIYA, SUSUMU YANAGISAWA,
          KIYOSHI YAGI, MAHITO CHIBA, SEIKEN TOKURA, NAOAKI KAWAKAMI
     UNIVERSITY OF AARHUS: FRANK JENSEN
     UNIVERSITY OF IOWA: VISVALDAS KAIRYS, HUI LI
     NATIONAL INST. OF STANDARDS AND TECHNOLOGY: WALT STEVENS, DAVID GARMER
     UNIVERSITY OF PISA: BENEDETTA MENNUCCI, JACOPO TOMASI
     UNIVERSITY OF MEMPHIS: HENRY KURTZ, PRAKASHAN KORAMBATH
     UNIVERSITY OF ALBERTA: TOBY ZENG, MARIUSZ KLOBUKOWSKI
     UNIVERSITY OF NEW ENGLAND: MARK SPACKMAN
     MIE UNIVERSITY: HIROAKI UMEDA
     NAT. INST. OF ADVANCED INDUSTRIAL SCIENCE AND TECHNOLOGY: KAZUO KITAURA
     MICHIGAN STATE UNIVERSITY:
          KAROL KOWALSKI, MARTA WLOCH, JEFFREY GOUR, JESSE LUTZ,
          WEI LI, PIOTR PIECUCH
     UNIVERSITY OF SILESIA: MONIKA MUSIAL, STANISLAW KUCHARSKI
     FACULTES UNIVERSITAIRES NOTRE-DAME DE LA PAIX:
          OLIVIER QUINET, BENOIT CHAMPAGNE
     UNIVERSITY OF CALIFORNIA - SANTA BARBARA: BERNARD KIRTMAN
     INSTITUTE FOR MOLECULAR SCIENCE:
          KAZUYA ISHIMURA, MICHIO KATOUDA, AND SHIGERU NAGASE
     UNIVERSITY OF NOTRE DAME: ANNA POMOGAEVA, DAN CHIPMAN
     KYUSHU UNIVERSITY:
          HARUYUKI NAKANO,
          FENG LONG GU, JACEK KORCHOWIEC, MARCIN MAKOWSKI, AND YURIKO AOKI,
          HIROTOSHI MORI AND EISAKU MIYOSHI
     PENNSYLVANIA STATE UNIVERSITY:
          TZVETELIN IORDANOV, CHET SWALINA, JONATHAN SKONE,
          SHARON HAMMES-SCHIFFER
     WASEDA UNIVERSITY:
          MASATO KOBAYASHI, TOMOKO AKAMA, TSUGUKI TOUMA,
          TAKESHI YOSHIKAWA, YASUHIRO IKABATA, JUNJI SEINO,
          YUYA NAKAJIMA, HIROMI NAKAI
     NANJING UNIVERSITY: SHUHUA LI
     UNIVERSITY OF NEBRASKA:
          PEIFENG SU, DEJUN SI, NANDUN THELLAMUREGE, YALI WANG, HUI LI
     UNIVERSITY OF ZURICH: ROBERTO PEVERATI, KIM BALDRIDGE
     N. COPERNICUS UNIVERSITY AND JACKSON STATE UNIVERSITY:
          MARIA BARYSZ
     UNIVERSITY OF COPENHAGEN: Jimmy Kromann, CASPER STEINMANN
     TOKYO INSTITUTE OF TECHNOLOGY: HIROYA NAKATA
     NAGOYA UNIVERSITY: YOSHIO NISHIMOTO, STEPHAN IRLE
     MOSCOW STATE UNIVERSITY: VLADIMIR MIRONOV

 EXECUTION OF GAMESS BEGUN Thu Jan 17 17:53:46 2019

            ECHO OF THE FIRST FEW INPUT CARDS -
 INPUT CARD> $CONTRL MULT=1 SCFTYP=RHF CCTYP=CCSD(T) $END                                   
 INPUT CARD> $BASIS GBASIS=N31 NGAUSS=6 NDFUNC=1 NPFUNC=1 $END                              
 INPUT CARD> $CCINP NCORE=0 $END                                                            
 INPUT CARD> $GUESS GUESS=HUCKEL $END                                                       
 INPUT CARD> $DATA                                                                          
 INPUT CARD>LiH...HF...6-31G* basis                                                         
 INPUT CARD>Cnv   2                                                                         
 INPUT CARD>                                                                                
 INPUT CARD>Li    3.0    0.0      0.0     0.0                                               
 INPUT CARD>H     1.0    0.0      0.0     4.9                                               
 INPUT CARD> $END                                                                           
    1000000 WORDS OF MEMORY AVAILABLE

     BASIS OPTIONS
     -------------
     GBASIS=N31          IGAUSS=       6      POLAR=POPN31  
     NDFUNC=       1     NFFUNC=       0     DIFFSP=       F
     NPFUNC=       1      DIFFS=       F     BASNAM=        


     RUN TITLE
     ---------
 LiH...HF...6-31G* basis                                                         

 THE POINT GROUP OF THE MOLECULE IS CNV     
 THE ORDER OF THE PRINCIPAL AXIS IS     2

 ATOM      ATOMIC                      COORDINATES (BOHR)
           CHARGE         X                   Y                   Z
 LI          3.0     0.0000000000        0.0000000000        0.0000000000
 H           1.0     0.0000000000        0.0000000000        9.2596573398

          INTERNUCLEAR DISTANCES (ANGS.)
          ------------------------------

                1 LI         2 H     

   1 LI      0.0000000    4.9000000  
   2 H       4.9000000    0.0000000  

  * ... LESS THAN  3.000


     ATOMIC BASIS SET
     ----------------
 THE CONTRACTED PRIMITIVE FUNCTIONS HAVE BEEN UNNORMALIZED
 THE CONTRACTED BASIS FUNCTIONS ARE NOW NORMALIZED TO UNITY

  SHELL TYPE  PRIMITIVE        EXPONENT          CONTRACTION COEFFICIENT(S)

 LI        

      1   S       1           642.4189150    0.002142607810
      1   S       2            96.7985153    0.016208871501
      1   S       3            22.0911212    0.077315572504
      1   S       4             6.2010702    0.245786052013
      1   S       5             1.9351177    0.470189004025
      1   S       6             0.6367358    0.345470845019

      2   L       7             2.3249184   -0.035091745735    0.008941508043
      2   L       8             0.6324304   -0.191232843103    0.141009464046
      2   L       9             0.0790534    1.083987794916    0.945363695309

      3   L      10             0.0359620    1.000000000000    1.000000000000

      4   D      11             0.2000000    1.000000000000

 H         

      5   S      12            18.7311370    0.033494604338
      5   S      13             2.8253944    0.234726953484
      5   S      14             0.6401217    0.813757326146

      6   S      15             0.1612778    1.000000000000

      7   P      16             1.1000000    1.000000000000

 TOTAL NUMBER OF BASIS SET SHELLS             =    7
 NUMBER OF CARTESIAN GAUSSIAN BASIS FUNCTIONS =   20
 NUMBER OF ELECTRONS                          =    4
 CHARGE OF MOLECULE                           =    0
 SPIN MULTIPLICITY                            =    1
 NUMBER OF OCCUPIED ORBITALS (ALPHA)          =    2
 NUMBER OF OCCUPIED ORBITALS (BETA )          =    2
 TOTAL NUMBER OF ATOMS                        =    2
 THE NUCLEAR REPULSION ENERGY IS        0.3239860710

 THIS MOLECULE IS RECOGNIZED AS BEING LINEAR,
 ORBITAL LZ DEGENERACY TOLERANCE ETOLLZ= 1.00E-06

     $CONTRL OPTIONS
     ---------------
 SCFTYP=RHF          RUNTYP=ENERGY       EXETYP=RUN     
 MPLEVL=       0     CITYP =NONE         CCTYP =CCSD(T)      VBTYP =NONE    
 DFTTYP=NONE         TDDFT =NONE    
 MULT  =       1     ICHARG=       0     NZVAR =       0     COORD =UNIQUE  
 PP    =NONE         RELWFN=NONE         LOCAL =NONE         NUMGRD=       F
 ISPHER=      -1     NOSYM =       0     MAXIT =      30     UNITS =ANGS    
 PLTORB=       F     MOLPLT=       F     AIMPAC=       F     FRIEND=        
 NPRINT=       7     IREST =       0     GEOM  =INPUT   
 NORMF =       0     NORMP =       0     ITOL  =      20     ICUT  =       9
 INTTYP=BEST         GRDTYP=BEST         QMTTOL= 1.0E-06

     $SYSTEM OPTIONS
     ---------------
  REPLICATED MEMORY=     1000000 WORDS (ON EVERY NODE).
 DISTRIBUTED MEMDDI=           0 MILLION WORDS IN AGGREGATE,
 MEMDDI DISTRIBUTED OVER   1 PROCESSORS IS           0 WORDS/PROCESSOR.
 TOTAL MEMORY REQUESTED ON EACH PROCESSOR=     1000000 WORDS.
 TIMLIM=      525600.00 MINUTES, OR     365.0 DAYS.
 PARALL= F  BALTYP=  DLB     KDIAG=    0  COREFL= F
 MXSEQ2=     300 MXSEQ3=     150  mem10=         0

          ----------------
          PROPERTIES INPUT
          ----------------

     MOMENTS            FIELD           POTENTIAL          DENSITY
 IEMOM =       1   IEFLD =       0   IEPOT =       0   IEDEN =       0
 WHERE =COMASS     WHERE =NUCLEI     WHERE =NUCLEI     WHERE =NUCLEI  
 OUTPUT=BOTH       OUTPUT=BOTH       OUTPUT=BOTH       OUTPUT=BOTH    
 IEMINT=       0   IEFINT=       0                     IEDINT=       0
                                                       MORB  =       0
          EXTRAPOLATION IN EFFECT
          SOSCF IN EFFECT
 ORBITAL PRINTING OPTION: NPREO=     1    20     2     1

     -------------------------------
     INTEGRAL TRANSFORMATION OPTIONS
     -------------------------------
     NWORD  =            0
     CUTOFF = 1.0E-09     MPTRAN =       0
     DIRTRF =       F     AOINTS =DUP     

          ----------------------
          INTEGRAL INPUT OPTIONS
          ----------------------
 NOPK  =       1 NORDER=       0 SCHWRZ=       F

     ------------------------------------------
     THE POINT GROUP IS CNV, NAXIS= 2, ORDER= 4
     ------------------------------------------

     DIMENSIONS OF THE SYMMETRY SUBSPACES ARE
 A1  =   11     A2  =    1     B1  =    4     B2  =    4

 ..... DONE SETTING UP THE RUN .....
 STEP CPU TIME =     0.00 TOTAL CPU TIME =        0.0 (    0.0 MIN)
 TOTAL WALL CLOCK TIME=        0.0 SECONDS, CPU UTILIZATION IS   0.00%

          ********************
          1 ELECTRON INTEGRALS
          ********************
 ...... END OF ONE-ELECTRON INTEGRALS ......
 STEP CPU TIME =     0.00 TOTAL CPU TIME =        0.0 (    0.0 MIN)
 TOTAL WALL CLOCK TIME=        0.0 SECONDS, CPU UTILIZATION IS   0.00%

          -------------
          GUESS OPTIONS
          -------------
          GUESS =HUCKEL            NORB  =       0          NORDER=       0
          MIX   =       F          PRTMO =       F          PUNMO =       F
          TOLZ  = 1.0E-08          TOLE  = 1.0E-05
          SYMDEN=       F          PURIFY=       F

 INITIAL GUESS ORBITALS GENERATED BY HUCKEL   ROUTINE.
 HUCKEL GUESS REQUIRES      4469 WORDS.

 SYMMETRIES FOR INITIAL GUESS ORBITALS FOLLOW.   BOTH SET(S).
     2 ORBITALS ARE OCCUPIED (    1 CORE ORBITALS).
     2=A1       3=A1       4=A1       5=A1       6=A1       7=A1       8=A1  
     9=A1      10=A1      11=A1      12=A2  
 ...... END OF INITIAL ORBITAL SELECTION ......
 STEP CPU TIME =     0.00 TOTAL CPU TIME =        0.0 (    0.0 MIN)
 TOTAL WALL CLOCK TIME=        0.0 SECONDS, CPU UTILIZATION IS   0.00%

                    ----------------------
                    AO INTEGRAL TECHNOLOGY
                    ----------------------
     S,P,L SHELL ROTATED AXIS INTEGRALS, REPROGRAMMED BY
        KAZUYA ISHIMURA (IMS) AND JOSE SIERRA (SYNSTAR).
     S,P,D,L SHELL ROTATED AXIS INTEGRALS PROGRAMMED BY
        KAZUYA ISHIMURA (INSTITUTE FOR MOLECULAR SCIENCE).
     S,P,D,F,G SHELL TO TOTAL QUARTET ANGULAR MOMENTUM SUM 5,
        ERIC PROGRAM BY GRAHAM FLETCHER (ELORET AND NASA ADVANCED
        SUPERCOMPUTING DIVISION, AMES RESEARCH CENTER).
     S,P,D,F,G,L SHELL GENERAL RYS QUADRATURE PROGRAMMED BY
        MICHEL DUPUIS (PACIFIC NORTHWEST NATIONAL LABORATORY).

          --------------------
          2 ELECTRON INTEGRALS
          --------------------

 THE -PK- OPTION IS OFF, THE INTEGRALS ARE NOT IN SUPERMATRIX FORM.
 STORING   15000 INTEGRALS/RECORD ON DISK, USING 12 BYTES/INTEGRAL.
 TWO ELECTRON INTEGRAL EVALUATION REQUIRES   90424 WORDS OF MEMORY.
 II,JST,KST,LST =  1  1  1  1 NREC =         1 INTLOC =    1
 II,JST,KST,LST =  2  1  1  1 NREC =         1 INTLOC =    2
 II,JST,KST,LST =  3  1  1  1 NREC =         1 INTLOC =   34
 II,JST,KST,LST =  4  1  1  1 NREC =         1 INTLOC =  214
 II,JST,KST,LST =  5  1  1  1 NREC =         1 INTLOC = 1189
 II,JST,KST,LST =  6  1  1  1 NREC =         1 INTLOC = 1769
 II,JST,KST,LST =  7  1  1  1 NREC =         1 INTLOC = 2589
 TOTAL NUMBER OF NONZERO TWO-ELECTRON INTEGRALS =                4802
          1 INTEGRAL RECORDS WERE STORED ON DISK FILE  8.
  ...... END OF TWO-ELECTRON INTEGRALS .....
 STEP CPU TIME =     0.02 TOTAL CPU TIME =        0.0 (    0.0 MIN)
 TOTAL WALL CLOCK TIME=        0.0 SECONDS, CPU UTILIZATION IS  66.67%

          --------------------------
                 RHF SCF CALCULATION
          --------------------------

     NUCLEAR ENERGY =         0.3239860710
     MAXIT =   30     NPUNCH=    2
     EXTRAP=T  DAMP=F  SHIFT=F  RSTRCT=F  DIIS=F  DEM=F  SOSCF=T
     DENSITY MATRIX CONV=  1.00E-06
     SOSCF WILL OPTIMIZE      36 ORBITAL ROTATIONS, SOGTOL=   0.250
     MEMORY REQUIRED FOR RHF ITERS=     33224 WORDS.

 ITER EX DEM     TOTAL ENERGY        E CHANGE  DENSITY CHANGE     ORB. GRAD
   1  0  0       -7.4838294900    -7.4838294900   1.034792978   0.000000000
          ---------------START SECOND ORDER SCF---------------
 SOSCF IS SCALING ROTATION ANGLE MATRIX, SQCDF=    0.100405
   2  1  0       -7.4534314542     0.0303980358   0.921140894   0.052212894
 SOSCF IS SCALING ROTATION ANGLE MATRIX, SQCDF=    0.122550
   3  2  0       -7.5322220587    -0.0787906045   0.947054465   0.076649966
 SOSCF IS SCALING ROTATION ANGLE MATRIX, SQCDF=   12.377644
   4  3  0       -7.6696418870    -0.1374198283   2.181290927   0.117111424
 SOSCF IS SCALING ROTATION ANGLE MATRIX, SQCDF=    0.389464
   5  4  0       -7.6207155241     0.0489263629   1.558808173   0.101173763
 SOSCF IS SCALING ROTATION ANGLE MATRIX, SQCDF=    0.121505
   6  5  0       -7.6066132295     0.0141022946   3.204120491   0.130630460
   7  6  0       -7.6538508291    -0.0472375996   1.688697294   0.114356757
   8  7  0       -7.6402282504     0.0136225787   1.693949959   0.106875900
   9  8  0       -7.6531745867    -0.0129463363   0.094288466   0.114358524
  10  9  0       -7.6528664012     0.0003081855   0.465983650   0.114529961
  11 10  0       -7.6550489500    -0.0021825488   0.329530506   0.113611413
  12 11  0       -7.6578148164    -0.0027658664   0.606305403   0.112157387
  13 12  0       -7.6670459764    -0.0092311600   0.633022202   0.106513292
  14 13  0       -7.6852703872    -0.0182244108   0.723933622   0.093450563
  15 14  0       -7.7210139078    -0.0357435206   3.150295754   0.078770992
  16 15  0       -7.7718242610    -0.0508103531   1.192522734   0.076862249
  17 16  0       -7.8076947045    -0.0358704436   0.426584900   0.032878562
  18 17  0       -7.8193981790    -0.0117034745   0.799131785   0.015889637
  19 18  0       -7.8164963358     0.0029018432   0.356078549   0.031959860
  20 19  0       -7.8256004427    -0.0091041069   0.043675335   0.002555583
  21 20  0       -7.8256800334    -0.0000795906   0.012179482   0.000899388
  22 21  0       -7.8256877292    -0.0000076958   0.000993913   0.000156457
  23 22  0       -7.8256880021    -0.0000002729   0.000400997   0.000028008
  24 23  0       -7.8256880156    -0.0000000135   0.000024290   0.000002622
  25 24  0       -7.8256880157    -0.0000000001   0.000004888   0.000000700
  26 25  0       -7.8256880157    -0.0000000000   0.000001334   0.000000096
  27 26  0       -7.8256880157    -0.0000000000   0.000000125   0.000000016

 RHF HAS CONVERGED, NOW COMPUTING EXACT TOTAL FOCK MATRIX
 FOR USE DURING THE COUPLED CLUSTER CALCULATION THAT FOLLOWS.

          -----------------
          DENSITY CONVERGED
          -----------------
     TIME TO FORM FOCK OPERATORS=       0.0 SECONDS (       0.0 SEC/ITER)
     TIME TO SOLVE SCF EQUATIONS=       0.0 SECONDS (       0.0 SEC/ITER)

 FINAL RHF ENERGY IS       -7.8256880157 AFTER  27 ITERATIONS

 LZ VALUE ANALYSIS FOR THE MOS
 ----------------------------------------
 MO     1 (    1) HAS LZ(WEIGHT)= 0.00(100.0%) 
 MO     2 (    2) HAS LZ(WEIGHT)= 0.00(100.0%) 
 MO     3 (    3) HAS LZ(WEIGHT)= 0.00(100.0%) 
 MO     4 (    4) HAS LZ(WEIGHT)=-1.00( 50.0%)  1.00( 50.0%) 
 MO     5 (    4) HAS LZ(WEIGHT)=-1.00( 50.0%)  1.00( 50.0%) 
 MO     6 (    5) HAS LZ(WEIGHT)= 0.00(100.0%) 
 MO     7 (    6) HAS LZ(WEIGHT)= 0.00(100.0%) 
 MO     8 (    7) HAS LZ(WEIGHT)=-1.00( 50.0%)  1.00( 50.0%) 
 MO     9 (    7) HAS LZ(WEIGHT)=-1.00( 50.0%)  1.00( 50.0%) 
 MO    10 (    8) HAS LZ(WEIGHT)= 0.00(100.0%) 
 MO    11 (    9) HAS LZ(WEIGHT)=-2.00( 50.0%)  2.00( 50.0%) 
 MO    12 (    9) HAS LZ(WEIGHT)=-2.00( 50.0%)  2.00( 50.0%) 
 MO    13 (   10) HAS LZ(WEIGHT)=-1.00( 50.0%)  1.00( 50.0%) 
 MO    14 (   10) HAS LZ(WEIGHT)=-1.00( 50.0%)  1.00( 50.0%) 
 MO    15 (   11) HAS LZ(WEIGHT)= 0.00(100.0%) 
 MO    16 (   12) HAS LZ(WEIGHT)= 0.00(100.0%) 
 MO    17 (   13) HAS LZ(WEIGHT)= 0.00(100.0%) 
 MO    18 (   14) HAS LZ(WEIGHT)=-1.00( 50.0%)  1.00( 50.0%) 
 MO    19 (   14) HAS LZ(WEIGHT)=-1.00( 50.0%)  1.00( 50.0%) 
 MO    20 (   15) HAS LZ(WEIGHT)= 0.00(100.0%) 

          ------------
          EIGENVECTORS
          ------------

                      1          2          3          4          5
                   -2.5870    -0.1762    -0.0549     0.0182     0.0182
                     A1         A1         A1         B1         B2  
    1  LI 1  S    0.998769  -0.096959  -0.161367  -0.000000  -0.000000
    2  LI 1  S   -0.012135  -0.077511   0.121251  -0.000000  -0.000000
    3  LI 1  X    0.000000   0.000000  -0.000000   0.243275  -0.000000
    4  LI 1  Y    0.000000   0.000000  -0.000000  -0.000000   0.243275
    5  LI 1  Z   -0.001961  -0.039783  -0.058020  -0.000000  -0.000000
    6  LI 1  S    0.001851   0.505431   0.689614  -0.000000  -0.000000
    7  LI 1  X    0.000000   0.000000  -0.000000   0.794063  -0.000000
    8  LI 1  Y    0.000000   0.000000  -0.000000  -0.000000   0.794063
    9  LI 1  Z    0.001303   0.205583  -0.268041  -0.000000  -0.000000
   10  LI 1 XX    0.008748   0.035091   0.032944  -0.000000  -0.000000
   11  LI 1 YY    0.008748   0.035091   0.032944  -0.000000  -0.000000
   12  LI 1 ZZ    0.008662   0.041121   0.030317  -0.000000  -0.000000
   13  LI 1 XY    0.000000   0.000000  -0.000000  -0.000000  -0.000000
   14  LI 1 XZ    0.000000   0.000000  -0.000000  -0.019981  -0.000000
   15  LI 1 YZ    0.000000   0.000000  -0.000000  -0.000000  -0.019981
   16  H  2  S    0.000046   0.238388  -0.122434  -0.000000  -0.000000
   17  H  2  S   -0.000165   0.626182  -0.330019  -0.000000  -0.000000
   18  H  2  X    0.000000   0.000000  -0.000000   0.000647  -0.000000
   19  H  2  Y    0.000000   0.000000  -0.000000  -0.000000   0.000647
   20  H  2  Z    0.000010  -0.001044  -0.000729  -0.000000  -0.000000

                      6          7          8          9         10
                    0.0394     0.1484     0.1628     0.1628     0.2023
                     A1         A1         B2         B1         A1  
    1  LI 1  S   -0.028669   0.060584  -0.000000  -0.000000   0.056968
    2  LI 1  S    0.403708   2.405974  -0.000000  -0.000000   2.123319
    3  LI 1  X   -0.000000  -0.000000  -0.000000   1.655710   0.000000
    4  LI 1  Y   -0.000000  -0.000000   1.655710  -0.000000   0.000000
    5  LI 1  Z    0.315715  -1.128046  -0.000000  -0.000000   1.220739
    6  LI 1  S   -0.127521  -1.874108  -0.000000  -0.000000  -1.690818
    7  LI 1  X   -0.000000  -0.000000  -0.000000  -1.473825   0.000000
    8  LI 1  Y   -0.000000  -0.000000  -1.473825  -0.000000   0.000000
    9  LI 1  Z    0.662272   0.958859  -0.000000  -0.000000  -1.209145
   10  LI 1 XX   -0.010315  -0.233901  -0.000000  -0.000000  -0.168623
   11  LI 1 YY   -0.010315  -0.233901  -0.000000  -0.000000  -0.168623
   12  LI 1 ZZ   -0.057935  -0.200151  -0.000000  -0.000000  -0.205158
   13  LI 1 XY   -0.000000  -0.000000  -0.000000  -0.000000   0.000000
   14  LI 1 XZ   -0.000000  -0.000000  -0.000000  -0.029822   0.000000
   15  LI 1 YZ   -0.000000  -0.000000  -0.029822  -0.000000   0.000000
   16  H  2  S   -0.092562   0.005975  -0.000000  -0.000000   0.051203
   17  H  2  S   -0.315107  -0.030438  -0.000000  -0.000000   0.250303
   18  H  2  X   -0.000000  -0.000000  -0.000000  -0.000771   0.000000
   19  H  2  Y   -0.000000  -0.000000  -0.000771  -0.000000   0.000000
   20  H  2  Z   -0.002252   0.000380  -0.000000  -0.000000   0.003168

                     11         12         13         14         15
                    0.4954     0.4954     0.4987     0.4987     0.5005
                     A1         A2         B2         B1         A1  
    1  LI 1  S    0.000000   0.000000  -0.000000  -0.000000  -0.000566
    2  LI 1  S    0.000000   0.000000  -0.000000  -0.000000   0.021641
    3  LI 1  X    0.000000   0.000000  -0.000000   0.054274   0.000000
    4  LI 1  Y    0.000000   0.000000   0.054274  -0.000000   0.000000
    5  LI 1  Z    0.000000   0.000000  -0.000000  -0.000000   0.065413
    6  LI 1  S    0.000000   0.000000  -0.000000  -0.000000  -0.007596
    7  LI 1  X    0.000000   0.000000  -0.000000  -0.028106   0.000000
    8  LI 1  Y    0.000000   0.000000  -0.028106  -0.000000   0.000000
    9  LI 1  Z    0.000000   0.000000  -0.000000  -0.000000  -0.031651
   10  LI 1 XX    0.866025   0.000000  -0.000000  -0.000000  -0.503174
   11  LI 1 YY   -0.866025   0.000000  -0.000000  -0.000000  -0.503174
   12  LI 1 ZZ   -0.000000   0.000000  -0.000000  -0.000000   0.995150
   13  LI 1 XY    0.000000   1.000000  -0.000000  -0.000000   0.000000
   14  LI 1 XZ    0.000000   0.000000  -0.000000   0.999355   0.000000
   15  LI 1 YZ    0.000000   0.000000   0.999355  -0.000000   0.000000
   16  H  2  S    0.000000   0.000000  -0.000000  -0.000000  -0.013513
   17  H  2  S    0.000000   0.000000  -0.000000  -0.000000  -0.000515
   18  H  2  X    0.000000   0.000000  -0.000000   0.000125   0.000000
   19  H  2  Y    0.000000   0.000000   0.000125  -0.000000   0.000000
   20  H  2  Z    0.000000   0.000000  -0.000000  -0.000000  -0.000345

                     16         17         18         19         20
                    1.1377     1.1932     2.4670     2.4670     2.4705
                     A1         A1         B2         B1         A1  
    1  LI 1  S    0.091333   0.072309  -0.000000  -0.000000  -0.005058
    2  LI 1  S    7.866469   5.305309  -0.000000  -0.000000  -0.236195
    3  LI 1  X    0.000000   0.000000  -0.000000   0.008510  -0.000000
    4  LI 1  Y    0.000000   0.000000   0.008510  -0.000000  -0.000000
    5  LI 1  Z   -0.043958   0.128090  -0.000000  -0.000000  -0.037386
    6  LI 1  S   -2.385118  -1.764354  -0.000000  -0.000000   0.105686
    7  LI 1  X    0.000000   0.000000  -0.000000  -0.011244  -0.000000
    8  LI 1  Y    0.000000   0.000000  -0.011244  -0.000000  -0.000000
    9  LI 1  Z    0.072358  -0.188915  -0.000000  -0.000000   0.053033
   10  LI 1 XX   -2.639942  -1.713257  -0.000000  -0.000000   0.065684
   11  LI 1 YY   -2.639942  -1.713257  -0.000000  -0.000000   0.065684
   12  LI 1 ZZ   -2.632506  -1.728840  -0.000000  -0.000000   0.066375
   13  LI 1 XY    0.000000   0.000000  -0.000000  -0.000000  -0.000000
   14  LI 1 XZ    0.000000   0.000000  -0.000000  -0.000136  -0.000000
   15  LI 1 YZ    0.000000   0.000000  -0.000136  -0.000000  -0.000000
   16  H  2  S    0.676820  -1.116969  -0.000000  -0.000000   0.009178
   17  H  2  S   -0.509171   0.990660  -0.000000  -0.000000  -0.017666
   18  H  2  X    0.000000   0.000000  -0.000000   1.000016  -0.000000
   19  H  2  Y    0.000000   0.000000   1.000016  -0.000000  -0.000000
   20  H  2  Z    0.005178   0.007016  -0.000000  -0.000000   1.000495
 ...... END OF RHF CALCULATION ......
 STEP CPU TIME =     0.01 TOTAL CPU TIME =        0.0 (    0.0 MIN)
 TOTAL WALL CLOCK TIME=        0.1 SECONDS, CPU UTILIZATION IS  30.00%

     ----------------------------------------------------------------
     PROPERTY VALUES FOR THE RHF   SELF-CONSISTENT FIELD WAVEFUNCTION
     ----------------------------------------------------------------

          ---------------------------------------
          MULLIKEN AND LOWDIN POPULATION ANALYSES
          ---------------------------------------

               ----- POPULATIONS IN EACH AO -----
                             MULLIKEN      LOWDIN
              1  LI 1  S      1.99808     1.98022
              2  LI 1  S     -0.07403     0.10621
              3  LI 1  X      0.00000     0.00000
              4  LI 1  Y      0.00000     0.00000
              5  LI 1  Z     -0.01162     0.00613
              6  LI 1  S      0.52759     0.33342
              7  LI 1  X      0.00000     0.00000
              8  LI 1  Y      0.00000     0.00000
              9  LI 1  Z      0.11645     0.09613
             10  LI 1 XX      0.02266     0.03082
             11  LI 1 YY      0.02266     0.03082
             12  LI 1 ZZ      0.02674     0.03381
             13  LI 1 XY      0.00000     0.00000
             14  LI 1 XZ      0.00000     0.00000
             15  LI 1 YZ      0.00000     0.00000
             16  H  2  S      0.31825     0.39825
             17  H  2  S      1.05321     0.98414
             18  H  2  X      0.00000     0.00000
             19  H  2  Y      0.00000     0.00000
             20  H  2  Z      0.00002     0.00004

          ----- MULLIKEN ATOMIC OVERLAP POPULATIONS -----
          (OFF-DIAGONAL ELEMENTS NEED TO BE MULTIPLIED BY 2)

             1           2

    1    2.5479745
    2    0.0805479   1.2909298

          TOTAL MULLIKEN AND LOWDIN ATOMIC POPULATIONS
       ATOM         MULL.POP.    CHARGE          LOW.POP.     CHARGE
    1 LI            2.628522    0.371478         2.617563    0.382437
    2 H             1.371478   -0.371478         1.382437   -0.382437

          -------------------------------
          BOND ORDER AND VALENCE ANALYSIS     BOND ORDER THRESHOLD=0.050
          -------------------------------

                   BOND                       BOND                       BOND
  ATOM PAIR DIST  ORDER      ATOM PAIR DIST  ORDER      ATOM PAIR DIST  ORDER
    1   2  4.900  0.862

                       TOTAL       BONDED        FREE
      ATOM            VALENCE     VALENCE     VALENCE
    1 LI                0.862       0.862       0.000
    2 H                 0.862       0.862       0.000

          ---------------------
          ELECTROSTATIC MOMENTS
          ---------------------

 POINT   1           X           Y           Z (BOHR)    CHARGE
                 0.000000    0.000000    1.163051        0.00 (A.U.)
         DX          DY          DZ         /D/  (DEBYE)
     0.000000    0.000000  -12.365979   12.365979
 ...... END OF PROPERTY EVALUATION ......
 STEP CPU TIME =     0.01 TOTAL CPU TIME =        0.0 (    0.0 MIN)
 TOTAL WALL CLOCK TIME=        0.1 SECONDS, CPU UTILIZATION IS  40.00%

     ---------------------------
     COUPLED CLUSTER CALCULATION
     ---------------------------
 CCTYP                        =CCSD(T) 
 TOTAL NUMBER OF MOS          =    20
 NUMBER OF OCCUPIED MOS       =     2
 NUMBER OF FROZEN CORE MOS    =     0
 NUMBER OF FROZEN VIRTUAL MOS =     0
 MAXIMUM CC ITERATIONS        =    30
 MAXIMUM DIIS ITERATIONS      =     5
 CONVERGENCE CRITERION FOR CC =     7
 AMPLITUDE ACCURACY THRESHOLD = 0.0E+00

     --------------------------------------------
     PARTIAL TWO ELECTRON INTEGRAL TRANSFORMATION
     --------------------------------------------

 NUMBER OF CORE MOLECULAR ORBITALS     =    0
 NUMBER OF OCCUPIED MOLECULAR ORBITALS =   20
 TOTAL NUMBER OF MOLECULAR ORBITALS    =   20
 TOTAL NUMBER OF ATOMIC ORBITALS       =   20
 THRESHOLD FOR KEEPING TRANSFORMED 2E- INTEGRALS = 1.000E-09
 AO INTEGRALS WILL BE READ IN FROM DISK...

 PLAN A: REQUIREMENTS FOR FULLY IN-MEMORY TRANSFORMATION:
 # OF WORDS AVAILABLE =              1000000
 # OF WORDS NEEDED    =               146042

 CHOOSING IN MEMORY PARTIAL TRANSFORMATION...
 TOTAL NUMBER OF TRANSFORMED 2E- INTEGRALS KEPT =         5962
 ... END OF INTEGRAL TRANSFORMATION ...
 STEP CPU TIME =     0.00 TOTAL CPU TIME =        0.0 (    0.0 MIN)
 TOTAL WALL CLOCK TIME=        0.1 SECONDS, CPU UTILIZATION IS  40.00%

   -----------------------
   COUPLED-CLUSTER PROGRAM
   -----------------------

   -------------------------------------------------------
   P.PIECUCH, S.A.KUCHARSKI, M.WLOCH, K.KOWALSKI, M.MUSIAL
   -------------------------------------------------------

 *****************************************************************
 THE FOLLOWING PAPERS SHOULD BE CITED WHEN USING COUPLED-CLUSTER
 OPTIONS:

 CCTYP = LCCD, CCD, CCSD, CCSD(T)
 P. PIECUCH, S.A. KUCHARSKI, K. KOWALSKI, AND M. MUSIAL,
 COMP. PHYS. COMMUN. 149, 71-96 (2002).

 CCTYP = R-CC, CR-CC, CCSD(TQ), CR-CC(Q)
 P. PIECUCH, S.A. KUCHARSKI, K. KOWALSKI, AND M. MUSIAL,
 COMP. PHYS. COMMUN. 149, 71-96 (2002);
 K. KOWALSKI AND P. PIECUCH, J. CHEM. PHYS. 113, 18-35 (2000);
 K. KOWALSKI AND P. PIECUCH, J. CHEM. PHYS. 113, 5644-5652 (2000).

 CCTYP = EOM-CCSD, CR-EOM
 P. PIECUCH, S.A. KUCHARSKI, K. KOWALSKI, AND M. MUSIAL,
 COMP. PHYS. COMMUN. 149, 71-96 (2002);
 K. KOWALSKI AND P. PIECUCH, J. CHEM. PHYS. 120, 1715-1738 (2004);
 M. WLOCH, J.R. GOUR, K. KOWALSKI, AND P. PIECUCH,
 J. CHEM. PHYS. 122, 214107-1 - 214107-15 (2005).

 CCTYP = CR-CCL
 P. PIECUCH, S.A. KUCHARSKI, K. KOWALSKI, AND M. MUSIAL,
 COMP. PHYS. COMMUN. 149, 71-96 (2002);
 P. PIECUCH AND M. WLOCH, J. CHEM. PHYS. 123,
 224105-1 - 224105-10 (2005).

 CCTYP = CR-EOML
 P. PIECUCH, S.A. KUCHARSKI, K. KOWALSKI, AND M. MUSIAL,
 COMP. PHYS. COMMUN. 149, 71-96 (2002);
 P. PIECUCH, J. R. GOUR, AND M. WLOCH,
 INT. J. QUANTUM CHEM. 109, 3268-3304 (2009);
 K. KOWALSKI AND P. PIECUCH,
 J. CHEM. PHYS. 120, 1715-1738 (2004).

 IN ADDITION, THE USE OF CCPRP=.TRUE. IN $CCINP AND/OR THE USE
 OF CCPRPE=.TRUE. IN $EOMINP SHOULD REFERENCE

 M. WLOCH, J.R. GOUR, K. KOWALSKI, AND P. PIECUCH,
 J. CHEM. PHYS. 122, 214107-1 - 214107-15 (2005).
 *****************************************************************


 THE FOLLOWING CALCULATIONS WILL BE PERFORMED:
                                                     CCSD   
                                                     CCSD[T]
                                                     CCSD(T)

 THE FOLLOWING ENERGY WILL BE CONSIDERED THE HIGHEST LEVEL:    CCSD(T)
 THE AVAILABLE REPLICATED MEMORY IS     1000000 WORDS.
 CONVERGENCE THRESHOLD:   1.0E-07
 MAXIMUM NUMBER OF ITERATIONS:   30

 MEMORY TO BE USED IN CC INTEGRAL SORTING IS      140808 WORDS.
 THE MINIMUM MEMORY TO ACCOMPLISH SORTING IS       47496 WORDS.
         5962 NON-ZERO TRANSFORMED 2E- INTEGRALS WERE SORTED INTO FILE 72:
            6 [IJ|KL] TYPE,          48 [AJ|KL] TYPE,
          174 [AB|IJ] TYPE,         214 [IA|BJ] TYPE,
         1672 [AB|CI] TYPE,        3848 [AB|CD] TYPE.
 TRANSFORMED INTEGRAL FILE  9 WAS READ    3 TIMES.
 ....... DONE WITH CC INTEGRAL PREPARATION .......
 STEP CPU TIME =     0.00 TOTAL CPU TIME =        0.0 (    0.0 MIN)
 TOTAL WALL CLOCK TIME=        0.1 SECONDS, CPU UTILIZATION IS  36.36%

 MEMORY REQUIRED FOR THE CCSD ITERATIONS IS       23276 WORDS.
 ITER:  1   CCSD    CORR. ENERGY:  -0.0611917326   CONV.: -7.7718E-02
 ITER:  2   CCSD    CORR. ENERGY:  -0.0691054405   CONV.: -6.8499E-02
 ITER:  3   CCSD    CORR. ENERGY:  -0.0677618541   CONV.: -1.5049E-02
 ITER:  4   CCSD    CORR. ENERGY:  -0.0566659170   CONV.: -3.6661E-01
 ITER:  5   CCSD    CORR. ENERGY:  -0.0567012231   CONV.: -3.6628E-01
 ITER:  6   CCSD    CORR. ENERGY:  -0.0571188708   CONV.: -3.6587E-01
 ITER:  7   CCSD    CORR. ENERGY:  -0.0607485436   CONV.: -3.5042E-01
 ITER:  8   CCSD    CORR. ENERGY:  -0.0646259450   CONV.: -3.3164E-01
 ITER:  9   CCSD    CORR. ENERGY:  -0.1424836960   CONV.:  4.8024E-01
 ITER: 10   CCSD    CORR. ENERGY:  -0.1177029248   CONV.:  1.4580E-01
 ITER: 11   CCSD    CORR. ENERGY:  -0.0822305093   CONV.: -2.1083E-01
 ITER: 12   CCSD    CORR. ENERGY:  -0.0924526698   CONV.: -1.1970E-01
 ITER: 13   CCSD    CORR. ENERGY:  -0.1046301844   CONV.: -6.7292E-03
 ITER: 14   CCSD    CORR. ENERGY:  -0.1040497080   CONV.: -9.0650E-03
 ITER: 15   CCSD    CORR. ENERGY:  -0.1043709808   CONV.: -5.2835E-03
 ITER: 16   CCSD    CORR. ENERGY:  -0.1048284085   CONV.: -9.3530E-04
 ITER: 17   CCSD    CORR. ENERGY:  -0.1049180849   CONV.: -5.3313E-04
 ITER: 18   CCSD    CORR. ENERGY:  -0.1048563958   CONV.:  4.6919E-04
 ITER: 19   CCSD    CORR. ENERGY:  -0.1048944102   CONV.: -1.8630E-04
 ITER: 20   CCSD    CORR. ENERGY:  -0.1048800930   CONV.: -6.8589E-05
 ITER: 21   CCSD    CORR. ENERGY:  -0.1048876252   CONV.: -7.7913E-05
 ITER: 22   CCSD    CORR. ENERGY:  -0.1048848936   CONV.: -1.8547E-05
 ITER: 23   CCSD    CORR. ENERGY:  -0.1048881121   CONV.: -2.1734E-05
 ITER: 24   CCSD    CORR. ENERGY:  -0.1048856273   CONV.: -9.1781E-06
 ITER: 25   CCSD    CORR. ENERGY:  -0.1048870448   CONV.: -4.1788E-06
 ITER: 26   CCSD    CORR. ENERGY:  -0.1048868153   CONV.:  2.4113E-06
 ITER: 27   CCSD    CORR. ENERGY:  -0.1048869168   CONV.:  1.2409E-06
 ITER: 28   CCSD    CORR. ENERGY:  -0.1048868169   CONV.:  1.0552E-06
 ITER: 29   CCSD    CORR. ENERGY:  -0.1048868780   CONV.:  5.1208E-07
 ITER: 30   CCSD    CORR. ENERGY:  -0.1048868132   CONV.:  1.7003E-07

                  CCSD     ITERATIONS DID NOT CONVERGE


    MBPT(2) CORRELATION ENERGY:  -0.0529009508
    CCSD    CORRELATION ENERGY:  -0.1048868132

 T1 DIAGNOSTIC        =     0.26132967
 NORM OF THE T1 VECTOR=     0.52265934
 NORM OF THE T2 VECTOR=     1.13501233

 THE FIVE LARGEST T1 AMPLITUDES ARE:
 T1 AMPLITUDE IS -0.510642 FOR I=   2 -> A=   3
 T1 AMPLITUDE IS  0.086291 FOR I=   2 -> A=  10
 T1 AMPLITUDE IS -0.048166 FOR I=   2 -> A=  17
 T1 AMPLITUDE IS -0.035342 FOR I=   2 -> A=   7
 T1 AMPLITUDE IS  0.031918 FOR I=   2 -> A=  16

 THE FIVE LARGEST SPIN-UNIQUE T2 AMPLITUDES ARE:
 T2 AMPLITUDE IS -1.007394 FOR I,J=   2   2 -> A,B=   3   3
 T2 AMPLITUDE IS -0.348743 FOR I,J=   2   2 -> A,B=   3   6
 T2 AMPLITUDE IS -0.124886 FOR I,J=   2   2 -> A,B=   6   6
 T2 AMPLITUDE IS  0.058499 FOR I,J=   2   2 -> A,B=   3  17
 T2 AMPLITUDE IS -0.039526 FOR I,J=   2   2 -> A,B=   3  16
 PRINTED T2(I-ALPHA,J-BETA -> A-ALPHA,B-BETA) VALUES
 EQUAL   T2(J-ALPHA,I-BETA -> B-ALPHA,A-BETA) AMPLITUDES.

 ....... DONE WITH CC AMPLITUDE ITERATIONS .......
 STEP CPU TIME =     0.08 TOTAL CPU TIME =        0.1 (    0.0 MIN)
 TOTAL WALL CLOCK TIME=        0.2 SECONDS, CPU UTILIZATION IS  63.16%
 AMPLITUDE ITERATIONS DID NOT CONVERGE
 EXECUTION OF GAMESS TERMINATED -ABNORMALLY- AT Thu Jan 17 17:53:46 2019
               580000  WORDS OF DYNAMIC MEMORY USED
 STEP CPU TIME =     0.00 TOTAL CPU TIME =        0.1 (    0.0 MIN)
 TOTAL WALL CLOCK TIME=        0.2 SECONDS, CPU UTILIZATION IS  63.16%
 DDI Process 0: error code 911
 ddikick.x: application process 0 quit unexpectedly.
 ddikick.x: Fatal error detected.
 The error is most likely to be in the application, so check for
 input errors, disk space, memory needs, application bugs, etc.
 ddikick.x will now clean up all processes, and exit...
 DDI Process 1: terminated upon request.
 ddikick.x: Sending kill signal to DDI processes.
 ddikick.x: Execution terminated due to error(s).
unset echo
----- accounting info -----
Files used on the master node bach.ad64.riken.go.jp were:
-rw-------  1 maho  staff      258  1 17 17:53 .//LiH.631g/4.9/LiH.631g.CCSDT.4.9.gamess.F05
-rw-r--r--  1 maho  staff   180016  1 17 17:53 .//LiH.631g/4.9/LiH.631g.CCSDT.4.9.gamess.F08
-rw-r--r--  1 maho  staff   181704  1 17 17:53 .//LiH.631g/4.9/LiH.631g.CCSDT.4.9.gamess.F09
-rw-r--r--  1 maho  staff  1603280  1 17 17:53 .//LiH.631g/4.9/LiH.631g.CCSDT.4.9.gamess.F10
-rw-r--r--  1 maho  staff   388608  1 17 17:53 .//LiH.631g/4.9/LiH.631g.CCSDT.4.9.gamess.F70
-rw-r--r--  1 maho  staff   106560  1 17 17:53 .//LiH.631g/4.9/LiH.631g.CCSDT.4.9.gamess.F71
-rw-r--r--  1 maho  staff  2286144  1 17 17:53 .//LiH.631g/4.9/LiH.631g.CCSDT.4.9.gamess.F72
-rw-r--r--  1 maho  staff      864  1 17 17:53 .//LiH.631g/4.9/LiH.631g.CCSDT.4.9.gamess.F73
-rw-r--r--  1 maho  staff    20736  1 17 17:53 .//LiH.631g/4.9/LiH.631g.CCSDT.4.9.gamess.F74
-rw-r--r--  1 maho  staff        0  1 17 17:53 .//LiH.631g/4.9/LiH.631g.CCSDT.4.9.gamess.F75
-rw-r--r--  1 maho  staff        0  1 17 17:53 .//LiH.631g/4.9/LiH.631g.CCSDT.4.9.gamess.F76
-rw-r--r--  1 maho  staff        0  1 17 17:53 .//LiH.631g/4.9/LiH.631g.CCSDT.4.9.gamess.F77
-rw-r--r--  1 maho  staff     7352  1 17 17:53 .//LiH.631g/4.9/LiH.631g.CCSDT.4.9.gamess.dat
-rw-------  1 maho  staff      258  1 17 17:53 .//LiH.631g/4.9/LiH.631g.CCSDT.4.9.gamess.inp
-rw-r--r--  1 maho  staff    36951  1 17 17:53 .//LiH.631g/4.9/LiH.631g.CCSDT.4.9.gamess.log
ls: No match.
ls: No match.
ls: No match.
2019年 1月17日 木曜日 17時53分49秒 JST
0.211u 0.123s 0:02.69 12.2%	0+0k 2+2io 0pf+0w
