----- GAMESS execution script 'rungms' -----
This job is running on host bach.ad64.riken.go.jp
under operating system Darwin at 2019年 1月17日 木曜日 17時53分42秒 JST
Available scratch disk space (Kbyte units) at beginning of the job is
Filesystem   1024-blocks       Used Available Capacity iused      ifree %iused  Mounted on
/dev/disk2s2  1953178672 1144747548 808431124    59%  984670 4293982609    0%   /Volumes/Users
GAMESS temporary binary files will be written to ./
GAMESS supplementary output files will be written to ./
Copying input file LiH.631g/4.9/LiH.631g.MP2.4.9.gamess.inp to your run's scratch directory...
cp LiH.631g/4.9/LiH.631g.MP2.4.9.gamess.inp .//LiH.631g/4.9/LiH.631g.MP2.4.9.gamess.F05
unset echo
/Volumes/Users/maho/bin/gamess//ddikick.x /Volumes/Users/maho/bin/gamess//gamess.00.x LiH.631g/4.9/LiH.631g.MP2.4.9.gamess -ddi 1 1 bach.ad64.riken.go.jp -scr ./

 Distributed Data Interface kickoff program.
 Initiating 1 compute processes on 1 nodes to run the following command:
 /Volumes/Users/maho/bin/gamess//gamess.00.x LiH.631g/4.9/LiH.631g.MP2.4.9.gamess 

          ******************************************************
          *         GAMESS VERSION = 18 AUG 2016 (R1)          *
          *             FROM IOWA STATE UNIVERSITY             *
          * M.W.SCHMIDT, K.K.BALDRIDGE, J.A.BOATZ, S.T.ELBERT, *
          *   M.S.GORDON, J.H.JENSEN, S.KOSEKI, N.MATSUNAGA,   *
          *          K.A.NGUYEN, S.J.SU, T.L.WINDUS,           *
          *       TOGETHER WITH M.DUPUIS, J.A.MONTGOMERY       *
          *         J.COMPUT.CHEM.  14, 1347-1363(1993)        *
          **************** 64 BIT APPLE VERSION ****************

  SINCE 1993, STUDENTS AND POSTDOCS WORKING AT IOWA STATE UNIVERSITY
  AND ALSO IN THEIR VARIOUS JOBS AFTER LEAVING ISU HAVE MADE IMPORTANT
  CONTRIBUTIONS TO THE CODE:
     IVANA ADAMOVIC, CHRISTINE AIKENS, YURI ALEXEEV, POOJA ARORA,
     ANDREY ASADCHEV, ROB BELL, PRADIPTA BANDYOPADHYAY, JONATHAN BENTZ,
     BRETT BODE, KURT BRORSEN, CALEB CARLIN, GALINA CHABAN, WEI CHEN,
     CHEOL HO CHOI, PAUL DAY, ALBERT DEFUSCO, NUWAN DESILVA, TIM DUDLEY,
     DMITRI FEDOROV, GRAHAM FLETCHER, MARK FREITAG, KURT GLAESEMANN,
     DAN KEMP, GRANT MERRILL, NORIYUKI MINEZAWA, JONATHAN MULLIN,
     TAKESHI NAGATA, SEAN NEDD, HEATHER NETZLOFF, BOSILJKA NJEGIC, RYAN OLSON,
     MIKE PAK, SPENCER PRUITT, LUKE ROSKOP, JIM SHOEMAKER, LYUDMILA SLIPCHENKO,
     TONY SMITH, SAROM SOK LEANG, JIE SONG, TETSUYA TAKETSUGU, SIMON WEBB,
     PENG XU, SOOHAENG YOO, FEDERICO ZAHARIEV

  ADDITIONAL CODE HAS BEEN PROVIDED BY COLLABORATORS IN OTHER GROUPS:
     IOWA STATE UNIVERSITY:
          JOE IVANIC, AARON WEST, LAIMUTIS BYTAUTAS, KLAUS RUEDENBERG
     UNIVERSITY OF TOKYO: KIMIHIKO HIRAO, TAKAHITO NAKAJIMA,
          TAKAO TSUNEDA, MUNEAKI KAMIYA, SUSUMU YANAGISAWA,
          KIYOSHI YAGI, MAHITO CHIBA, SEIKEN TOKURA, NAOAKI KAWAKAMI
     UNIVERSITY OF AARHUS: FRANK JENSEN
     UNIVERSITY OF IOWA: VISVALDAS KAIRYS, HUI LI
     NATIONAL INST. OF STANDARDS AND TECHNOLOGY: WALT STEVENS, DAVID GARMER
     UNIVERSITY OF PISA: BENEDETTA MENNUCCI, JACOPO TOMASI
     UNIVERSITY OF MEMPHIS: HENRY KURTZ, PRAKASHAN KORAMBATH
     UNIVERSITY OF ALBERTA: TOBY ZENG, MARIUSZ KLOBUKOWSKI
     UNIVERSITY OF NEW ENGLAND: MARK SPACKMAN
     MIE UNIVERSITY: HIROAKI UMEDA
     NAT. INST. OF ADVANCED INDUSTRIAL SCIENCE AND TECHNOLOGY: KAZUO KITAURA
     MICHIGAN STATE UNIVERSITY:
          KAROL KOWALSKI, MARTA WLOCH, JEFFREY GOUR, JESSE LUTZ,
          WEI LI, PIOTR PIECUCH
     UNIVERSITY OF SILESIA: MONIKA MUSIAL, STANISLAW KUCHARSKI
     FACULTES UNIVERSITAIRES NOTRE-DAME DE LA PAIX:
          OLIVIER QUINET, BENOIT CHAMPAGNE
     UNIVERSITY OF CALIFORNIA - SANTA BARBARA: BERNARD KIRTMAN
     INSTITUTE FOR MOLECULAR SCIENCE:
          KAZUYA ISHIMURA, MICHIO KATOUDA, AND SHIGERU NAGASE
     UNIVERSITY OF NOTRE DAME: ANNA POMOGAEVA, DAN CHIPMAN
     KYUSHU UNIVERSITY:
          HARUYUKI NAKANO,
          FENG LONG GU, JACEK KORCHOWIEC, MARCIN MAKOWSKI, AND YURIKO AOKI,
          HIROTOSHI MORI AND EISAKU MIYOSHI
     PENNSYLVANIA STATE UNIVERSITY:
          TZVETELIN IORDANOV, CHET SWALINA, JONATHAN SKONE,
          SHARON HAMMES-SCHIFFER
     WASEDA UNIVERSITY:
          MASATO KOBAYASHI, TOMOKO AKAMA, TSUGUKI TOUMA,
          TAKESHI YOSHIKAWA, YASUHIRO IKABATA, JUNJI SEINO,
          YUYA NAKAJIMA, HIROMI NAKAI
     NANJING UNIVERSITY: SHUHUA LI
     UNIVERSITY OF NEBRASKA:
          PEIFENG SU, DEJUN SI, NANDUN THELLAMUREGE, YALI WANG, HUI LI
     UNIVERSITY OF ZURICH: ROBERTO PEVERATI, KIM BALDRIDGE
     N. COPERNICUS UNIVERSITY AND JACKSON STATE UNIVERSITY:
          MARIA BARYSZ
     UNIVERSITY OF COPENHAGEN: Jimmy Kromann, CASPER STEINMANN
     TOKYO INSTITUTE OF TECHNOLOGY: HIROYA NAKATA
     NAGOYA UNIVERSITY: YOSHIO NISHIMOTO, STEPHAN IRLE
     MOSCOW STATE UNIVERSITY: VLADIMIR MIRONOV

 EXECUTION OF GAMESS BEGUN Thu Jan 17 17:53:43 2019

            ECHO OF THE FIRST FEW INPUT CARDS -
 INPUT CARD> $CONTRL MULT=1 SCFTYP=RHF MPLEVL=2 $END                                        
 INPUT CARD> $MP2 NACORE=0 NBCORE=0 $END                                                    
 INPUT CARD> $BASIS GBASIS=N31 NGAUSS=6 NDFUNC=1 NPFUNC=1 $END                              
 INPUT CARD> $GUESS GUESS=HUCKEL $END                                                       
 INPUT CARD> $DATA                                                                          
 INPUT CARD>LiH...HF...6-31G* basis                                                         
 INPUT CARD>Cnv   2                                                                         
 INPUT CARD>                                                                                
 INPUT CARD>Li    3.0    0.0      0.0     0.0                                               
 INPUT CARD>H     1.0    0.0      0.0     4.9                                               
 INPUT CARD> $END                                                                           
    1000000 WORDS OF MEMORY AVAILABLE

     BASIS OPTIONS
     -------------
     GBASIS=N31          IGAUSS=       6      POLAR=POPN31  
     NDFUNC=       1     NFFUNC=       0     DIFFSP=       F
     NPFUNC=       1      DIFFS=       F     BASNAM=        


     RUN TITLE
     ---------
 LiH...HF...6-31G* basis                                                         

 THE POINT GROUP OF THE MOLECULE IS CNV     
 THE ORDER OF THE PRINCIPAL AXIS IS     2

 ATOM      ATOMIC                      COORDINATES (BOHR)
           CHARGE         X                   Y                   Z
 LI          3.0     0.0000000000        0.0000000000        0.0000000000
 H           1.0     0.0000000000        0.0000000000        9.2596573398

          INTERNUCLEAR DISTANCES (ANGS.)
          ------------------------------

                1 LI         2 H     

   1 LI      0.0000000    4.9000000  
   2 H       4.9000000    0.0000000  

  * ... LESS THAN  3.000


     ATOMIC BASIS SET
     ----------------
 THE CONTRACTED PRIMITIVE FUNCTIONS HAVE BEEN UNNORMALIZED
 THE CONTRACTED BASIS FUNCTIONS ARE NOW NORMALIZED TO UNITY

  SHELL TYPE  PRIMITIVE        EXPONENT          CONTRACTION COEFFICIENT(S)

 LI        

      1   S       1           642.4189150    0.002142607810
      1   S       2            96.7985153    0.016208871501
      1   S       3            22.0911212    0.077315572504
      1   S       4             6.2010702    0.245786052013
      1   S       5             1.9351177    0.470189004025
      1   S       6             0.6367358    0.345470845019

      2   L       7             2.3249184   -0.035091745735    0.008941508043
      2   L       8             0.6324304   -0.191232843103    0.141009464046
      2   L       9             0.0790534    1.083987794916    0.945363695309

      3   L      10             0.0359620    1.000000000000    1.000000000000

      4   D      11             0.2000000    1.000000000000

 H         

      5   S      12            18.7311370    0.033494604338
      5   S      13             2.8253944    0.234726953484
      5   S      14             0.6401217    0.813757326146

      6   S      15             0.1612778    1.000000000000

      7   P      16             1.1000000    1.000000000000

 TOTAL NUMBER OF BASIS SET SHELLS             =    7
 NUMBER OF CARTESIAN GAUSSIAN BASIS FUNCTIONS =   20
 NUMBER OF ELECTRONS                          =    4
 CHARGE OF MOLECULE                           =    0
 SPIN MULTIPLICITY                            =    1
 NUMBER OF OCCUPIED ORBITALS (ALPHA)          =    2
 NUMBER OF OCCUPIED ORBITALS (BETA )          =    2
 TOTAL NUMBER OF ATOMS                        =    2
 THE NUCLEAR REPULSION ENERGY IS        0.3239860710

 THIS MOLECULE IS RECOGNIZED AS BEING LINEAR,
 ORBITAL LZ DEGENERACY TOLERANCE ETOLLZ= 1.00E-06

     $CONTRL OPTIONS
     ---------------
 SCFTYP=RHF          RUNTYP=ENERGY       EXETYP=RUN     
 MPLEVL=       2     CITYP =NONE         CCTYP =NONE         VBTYP =NONE    
 DFTTYP=NONE         TDDFT =NONE    
 MULT  =       1     ICHARG=       0     NZVAR =       0     COORD =UNIQUE  
 PP    =NONE         RELWFN=NONE         LOCAL =NONE         NUMGRD=       F
 ISPHER=      -1     NOSYM =       0     MAXIT =      30     UNITS =ANGS    
 PLTORB=       F     MOLPLT=       F     AIMPAC=       F     FRIEND=        
 NPRINT=       7     IREST =       0     GEOM  =INPUT   
 NORMF =       0     NORMP =       0     ITOL  =      20     ICUT  =       9
 INTTYP=BEST         GRDTYP=BEST         QMTTOL= 1.0E-06

     $SYSTEM OPTIONS
     ---------------
  REPLICATED MEMORY=     1000000 WORDS (ON EVERY NODE).
 DISTRIBUTED MEMDDI=           0 MILLION WORDS IN AGGREGATE,
 MEMDDI DISTRIBUTED OVER   1 PROCESSORS IS           0 WORDS/PROCESSOR.
 TOTAL MEMORY REQUESTED ON EACH PROCESSOR=     1000000 WORDS.
 TIMLIM=      525600.00 MINUTES, OR     365.0 DAYS.
 PARALL= F  BALTYP=  DLB     KDIAG=    0  COREFL= F
 MXSEQ2=     300 MXSEQ3=     150  mem10=         0

          ----------------
          PROPERTIES INPUT
          ----------------

     MOMENTS            FIELD           POTENTIAL          DENSITY
 IEMOM =       1   IEFLD =       0   IEPOT =       0   IEDEN =       0
 WHERE =COMASS     WHERE =NUCLEI     WHERE =NUCLEI     WHERE =NUCLEI  
 OUTPUT=BOTH       OUTPUT=BOTH       OUTPUT=BOTH       OUTPUT=BOTH    
 IEMINT=       0   IEFINT=       0                     IEDINT=       0
                                                       MORB  =       0
          EXTRAPOLATION IN EFFECT
          SOSCF IN EFFECT
 ORBITAL PRINTING OPTION: NPREO=     1    20     2     1

     -------------------------------
     INTEGRAL TRANSFORMATION OPTIONS
     -------------------------------
     NWORD  =            0
     CUTOFF = 1.0E-09     MPTRAN =       0
     DIRTRF =       F     AOINTS =DUP     

          ----------------------
          INTEGRAL INPUT OPTIONS
          ----------------------
 NOPK  =       1 NORDER=       0 SCHWRZ=       F

          -----------------------
          MP2 CONTROL INFORMATION
          -----------------------
          NACORE =        0  NBCORE =        0
          LMOMP2 =        F  AOINTS = DUP     
          METHOD =        2  NWORD  =               0
          MP2PRP =        F  OSPT   = NONE    
          CUTOFF = 1.00E-09  CPHFBS = BASISMO 
          CODE   = IMS     

          NUMBER OF CORE -A-  ORBITALS =     0
          NUMBER OF CORE -B-  ORBITALS =     0
          NUMBER OF OCC. -A-  ORBITALS =     2
          NUMBER OF OCC. -B-  ORBITALS =     2
          NUMBER OF MOLECULAR ORBITALS =    20
          NUMBER OF   BASIS  FUNCTIONS =    20


     ------------------------------------------
     THE POINT GROUP IS CNV, NAXIS= 2, ORDER= 4
     ------------------------------------------

     DIMENSIONS OF THE SYMMETRY SUBSPACES ARE
 A1  =   11     A2  =    1     B1  =    4     B2  =    4

 ..... DONE SETTING UP THE RUN .....
 STEP CPU TIME =     0.00 TOTAL CPU TIME =        0.0 (    0.0 MIN)
 TOTAL WALL CLOCK TIME=        0.0 SECONDS, CPU UTILIZATION IS   0.00%

          ********************
          1 ELECTRON INTEGRALS
          ********************
 ...... END OF ONE-ELECTRON INTEGRALS ......
 STEP CPU TIME =     0.00 TOTAL CPU TIME =        0.0 (    0.0 MIN)
 TOTAL WALL CLOCK TIME=        0.0 SECONDS, CPU UTILIZATION IS   0.00%

          -------------
          GUESS OPTIONS
          -------------
          GUESS =HUCKEL            NORB  =       0          NORDER=       0
          MIX   =       F          PRTMO =       F          PUNMO =       F
          TOLZ  = 1.0E-08          TOLE  = 1.0E-05
          SYMDEN=       F          PURIFY=       F

 INITIAL GUESS ORBITALS GENERATED BY HUCKEL   ROUTINE.
 HUCKEL GUESS REQUIRES      4469 WORDS.

 SYMMETRIES FOR INITIAL GUESS ORBITALS FOLLOW.   BOTH SET(S).
     2 ORBITALS ARE OCCUPIED (    1 CORE ORBITALS).
     2=A1       3=A1       4=A1       5=A1       6=A1       7=A1       8=A1  
     9=A1      10=A1      11=A1      12=A2  
 ...... END OF INITIAL ORBITAL SELECTION ......
 STEP CPU TIME =     0.00 TOTAL CPU TIME =        0.0 (    0.0 MIN)
 TOTAL WALL CLOCK TIME=        0.0 SECONDS, CPU UTILIZATION IS   0.00%

                    ----------------------
                    AO INTEGRAL TECHNOLOGY
                    ----------------------
     S,P,L SHELL ROTATED AXIS INTEGRALS, REPROGRAMMED BY
        KAZUYA ISHIMURA (IMS) AND JOSE SIERRA (SYNSTAR).
     S,P,D,L SHELL ROTATED AXIS INTEGRALS PROGRAMMED BY
        KAZUYA ISHIMURA (INSTITUTE FOR MOLECULAR SCIENCE).
     S,P,D,F,G SHELL TO TOTAL QUARTET ANGULAR MOMENTUM SUM 5,
        ERIC PROGRAM BY GRAHAM FLETCHER (ELORET AND NASA ADVANCED
        SUPERCOMPUTING DIVISION, AMES RESEARCH CENTER).
     S,P,D,F,G,L SHELL GENERAL RYS QUADRATURE PROGRAMMED BY
        MICHEL DUPUIS (PACIFIC NORTHWEST NATIONAL LABORATORY).

          --------------------
          2 ELECTRON INTEGRALS
          --------------------

 THE -PK- OPTION IS OFF, THE INTEGRALS ARE NOT IN SUPERMATRIX FORM.
 STORING   15000 INTEGRALS/RECORD ON DISK, USING 12 BYTES/INTEGRAL.
 TWO ELECTRON INTEGRAL EVALUATION REQUIRES   90424 WORDS OF MEMORY.
 II,JST,KST,LST =  1  1  1  1 NREC =         1 INTLOC =    1
 II,JST,KST,LST =  2  1  1  1 NREC =         1 INTLOC =    2
 II,JST,KST,LST =  3  1  1  1 NREC =         1 INTLOC =   34
 II,JST,KST,LST =  4  1  1  1 NREC =         1 INTLOC =  214
 II,JST,KST,LST =  5  1  1  1 NREC =         1 INTLOC = 1189
 II,JST,KST,LST =  6  1  1  1 NREC =         1 INTLOC = 1769
 II,JST,KST,LST =  7  1  1  1 NREC =         1 INTLOC = 2589
 TOTAL NUMBER OF NONZERO TWO-ELECTRON INTEGRALS =                4802
          1 INTEGRAL RECORDS WERE STORED ON DISK FILE  8.
  ...... END OF TWO-ELECTRON INTEGRALS .....
 STEP CPU TIME =     0.02 TOTAL CPU TIME =        0.0 (    0.0 MIN)
 TOTAL WALL CLOCK TIME=        0.0 SECONDS, CPU UTILIZATION IS  66.67%

          --------------------------
                 RHF SCF CALCULATION
          --------------------------

     NUCLEAR ENERGY =         0.3239860710
     MAXIT =   30     NPUNCH=    2
     EXTRAP=T  DAMP=F  SHIFT=F  RSTRCT=F  DIIS=F  DEM=F  SOSCF=T
     DENSITY MATRIX CONV=  1.00E-06
     SOSCF WILL OPTIMIZE      36 ORBITAL ROTATIONS, SOGTOL=   0.250
     MEMORY REQUIRED FOR RHF ITERS=     33224 WORDS.

 ITER EX DEM     TOTAL ENERGY        E CHANGE  DENSITY CHANGE     ORB. GRAD
   1  0  0       -7.4838294900    -7.4838294900   1.034792978   0.000000000
          ---------------START SECOND ORDER SCF---------------
 SOSCF IS SCALING ROTATION ANGLE MATRIX, SQCDF=    0.100405
   2  1  0       -7.4534314542     0.0303980358   0.921140894   0.052212894
 SOSCF IS SCALING ROTATION ANGLE MATRIX, SQCDF=    0.122550
   3  2  0       -7.5322220587    -0.0787906045   0.947054465   0.076649966
 SOSCF IS SCALING ROTATION ANGLE MATRIX, SQCDF=   12.377644
   4  3  0       -7.6696418870    -0.1374198283   2.181290927   0.117111424
 SOSCF IS SCALING ROTATION ANGLE MATRIX, SQCDF=    0.389464
   5  4  0       -7.6207155241     0.0489263629   1.558808173   0.101173763
 SOSCF IS SCALING ROTATION ANGLE MATRIX, SQCDF=    0.121505
   6  5  0       -7.6066132295     0.0141022946   3.204120491   0.130630460
   7  6  0       -7.6538508291    -0.0472375996   1.688697294   0.114356757
   8  7  0       -7.6402282504     0.0136225787   1.693949959   0.106875900
   9  8  0       -7.6531745867    -0.0129463363   0.094288466   0.114358524
  10  9  0       -7.6528664012     0.0003081855   0.465983650   0.114529961
  11 10  0       -7.6550489500    -0.0021825488   0.329530506   0.113611413
  12 11  0       -7.6578148164    -0.0027658664   0.606305403   0.112157387
  13 12  0       -7.6670459764    -0.0092311600   0.633022202   0.106513292
  14 13  0       -7.6852703872    -0.0182244108   0.723933622   0.093450563
  15 14  0       -7.7210139078    -0.0357435206   3.150295754   0.078770992
  16 15  0       -7.7718242610    -0.0508103531   1.192522734   0.076862249
  17 16  0       -7.8076947045    -0.0358704436   0.426584900   0.032878562
  18 17  0       -7.8193981790    -0.0117034745   0.799131785   0.015889637
  19 18  0       -7.8164963358     0.0029018432   0.356078549   0.031959860
  20 19  0       -7.8256004427    -0.0091041069   0.043675335   0.002555583
  21 20  0       -7.8256800334    -0.0000795906   0.012179482   0.000899388
  22 21  0       -7.8256877292    -0.0000076958   0.000993913   0.000156457
  23 22  0       -7.8256880021    -0.0000002729   0.000400997   0.000028008
  24 23  0       -7.8256880156    -0.0000000135   0.000024290   0.000002622
  25 24  0       -7.8256880157    -0.0000000001   0.000004888   0.000000700
  26 25  0       -7.8256880157    -0.0000000000   0.000001334   0.000000096
  27 26  0       -7.8256880157    -0.0000000000   0.000000125   0.000000016

          -----------------
          DENSITY CONVERGED
          -----------------
     TIME TO FORM FOCK OPERATORS=       0.0 SECONDS (       0.0 SEC/ITER)
     TIME TO SOLVE SCF EQUATIONS=       0.0 SECONDS (       0.0 SEC/ITER)

 FINAL RHF ENERGY IS       -7.8256880157 AFTER  27 ITERATIONS

 LZ VALUE ANALYSIS FOR THE MOS
 ----------------------------------------
 MO     1 (    1) HAS LZ(WEIGHT)= 0.00(100.0%) 
 MO     2 (    2) HAS LZ(WEIGHT)= 0.00(100.0%) 
 MO     3 (    3) HAS LZ(WEIGHT)= 0.00(100.0%) 
 MO     4 (    4) HAS LZ(WEIGHT)=-1.00( 50.0%)  1.00( 50.0%) 
 MO     5 (    4) HAS LZ(WEIGHT)=-1.00( 50.0%)  1.00( 50.0%) 
 MO     6 (    5) HAS LZ(WEIGHT)= 0.00(100.0%) 
 MO     7 (    6) HAS LZ(WEIGHT)= 0.00(100.0%) 
 MO     8 (    7) HAS LZ(WEIGHT)=-1.00( 50.0%)  1.00( 50.0%) 
 MO     9 (    7) HAS LZ(WEIGHT)=-1.00( 50.0%)  1.00( 50.0%) 
 MO    10 (    8) HAS LZ(WEIGHT)= 0.00(100.0%) 
 MO    11 (    9) HAS LZ(WEIGHT)=-2.00( 50.0%)  2.00( 50.0%) 
 MO    12 (    9) HAS LZ(WEIGHT)=-2.00( 50.0%)  2.00( 50.0%) 
 MO    13 (   10) HAS LZ(WEIGHT)=-1.00( 50.0%)  1.00( 50.0%) 
 MO    14 (   10) HAS LZ(WEIGHT)=-1.00( 50.0%)  1.00( 50.0%) 
 MO    15 (   11) HAS LZ(WEIGHT)= 0.00(100.0%) 
 MO    16 (   12) HAS LZ(WEIGHT)= 0.00(100.0%) 
 MO    17 (   13) HAS LZ(WEIGHT)= 0.00(100.0%) 
 MO    18 (   14) HAS LZ(WEIGHT)=-1.00( 50.0%)  1.00( 50.0%) 
 MO    19 (   14) HAS LZ(WEIGHT)=-1.00( 50.0%)  1.00( 50.0%) 
 MO    20 (   15) HAS LZ(WEIGHT)= 0.00(100.0%) 

          ------------
          EIGENVECTORS
          ------------

                      1          2          3          4          5
                   -2.5870    -0.1762    -0.0549     0.0182     0.0182
                     A1         A1         A1         B1         B2  
    1  LI 1  S    0.998769  -0.096959  -0.161367  -0.000000  -0.000000
    2  LI 1  S   -0.012135  -0.077511   0.121251  -0.000000  -0.000000
    3  LI 1  X    0.000000   0.000000  -0.000000   0.243275  -0.000000
    4  LI 1  Y    0.000000   0.000000  -0.000000  -0.000000   0.243275
    5  LI 1  Z   -0.001961  -0.039783  -0.058020  -0.000000  -0.000000
    6  LI 1  S    0.001851   0.505431   0.689614  -0.000000  -0.000000
    7  LI 1  X    0.000000   0.000000  -0.000000   0.794063  -0.000000
    8  LI 1  Y    0.000000   0.000000  -0.000000  -0.000000   0.794063
    9  LI 1  Z    0.001303   0.205583  -0.268041  -0.000000  -0.000000
   10  LI 1 XX    0.008748   0.035091   0.032944  -0.000000  -0.000000
   11  LI 1 YY    0.008748   0.035091   0.032944  -0.000000  -0.000000
   12  LI 1 ZZ    0.008662   0.041121   0.030317  -0.000000  -0.000000
   13  LI 1 XY    0.000000   0.000000  -0.000000  -0.000000  -0.000000
   14  LI 1 XZ    0.000000   0.000000  -0.000000  -0.019981  -0.000000
   15  LI 1 YZ    0.000000   0.000000  -0.000000  -0.000000  -0.019981
   16  H  2  S    0.000046   0.238388  -0.122434  -0.000000  -0.000000
   17  H  2  S   -0.000165   0.626182  -0.330019  -0.000000  -0.000000
   18  H  2  X    0.000000   0.000000  -0.000000   0.000647  -0.000000
   19  H  2  Y    0.000000   0.000000  -0.000000  -0.000000   0.000647
   20  H  2  Z    0.000010  -0.001044  -0.000729  -0.000000  -0.000000

                      6          7          8          9         10
                    0.0394     0.1484     0.1628     0.1628     0.2023
                     A1         A1         B2         B1         A1  
    1  LI 1  S   -0.028669   0.060584  -0.000000  -0.000000   0.056968
    2  LI 1  S    0.403708   2.405974  -0.000000  -0.000000   2.123319
    3  LI 1  X   -0.000000  -0.000000  -0.000000   1.655710   0.000000
    4  LI 1  Y   -0.000000  -0.000000   1.655710  -0.000000   0.000000
    5  LI 1  Z    0.315715  -1.128046  -0.000000  -0.000000   1.220739
    6  LI 1  S   -0.127521  -1.874108  -0.000000  -0.000000  -1.690818
    7  LI 1  X   -0.000000  -0.000000  -0.000000  -1.473825   0.000000
    8  LI 1  Y   -0.000000  -0.000000  -1.473825  -0.000000   0.000000
    9  LI 1  Z    0.662272   0.958859  -0.000000  -0.000000  -1.209145
   10  LI 1 XX   -0.010315  -0.233901  -0.000000  -0.000000  -0.168623
   11  LI 1 YY   -0.010315  -0.233901  -0.000000  -0.000000  -0.168623
   12  LI 1 ZZ   -0.057935  -0.200151  -0.000000  -0.000000  -0.205158
   13  LI 1 XY   -0.000000  -0.000000  -0.000000  -0.000000   0.000000
   14  LI 1 XZ   -0.000000  -0.000000  -0.000000  -0.029822   0.000000
   15  LI 1 YZ   -0.000000  -0.000000  -0.029822  -0.000000   0.000000
   16  H  2  S   -0.092562   0.005975  -0.000000  -0.000000   0.051203
   17  H  2  S   -0.315107  -0.030438  -0.000000  -0.000000   0.250303
   18  H  2  X   -0.000000  -0.000000  -0.000000  -0.000771   0.000000
   19  H  2  Y   -0.000000  -0.000000  -0.000771  -0.000000   0.000000
   20  H  2  Z   -0.002252   0.000380  -0.000000  -0.000000   0.003168

                     11         12         13         14         15
                    0.4954     0.4954     0.4987     0.4987     0.5005
                     A1         A2         B2         B1         A1  
    1  LI 1  S    0.000000   0.000000  -0.000000  -0.000000  -0.000566
    2  LI 1  S    0.000000   0.000000  -0.000000  -0.000000   0.021641
    3  LI 1  X    0.000000   0.000000  -0.000000   0.054274   0.000000
    4  LI 1  Y    0.000000   0.000000   0.054274  -0.000000   0.000000
    5  LI 1  Z    0.000000   0.000000  -0.000000  -0.000000   0.065413
    6  LI 1  S    0.000000   0.000000  -0.000000  -0.000000  -0.007596
    7  LI 1  X    0.000000   0.000000  -0.000000  -0.028106   0.000000
    8  LI 1  Y    0.000000   0.000000  -0.028106  -0.000000   0.000000
    9  LI 1  Z    0.000000   0.000000  -0.000000  -0.000000  -0.031651
   10  LI 1 XX    0.866025   0.000000  -0.000000  -0.000000  -0.503174
   11  LI 1 YY   -0.866025   0.000000  -0.000000  -0.000000  -0.503174
   12  LI 1 ZZ   -0.000000   0.000000  -0.000000  -0.000000   0.995150
   13  LI 1 XY    0.000000   1.000000  -0.000000  -0.000000   0.000000
   14  LI 1 XZ    0.000000   0.000000  -0.000000   0.999355   0.000000
   15  LI 1 YZ    0.000000   0.000000   0.999355  -0.000000   0.000000
   16  H  2  S    0.000000   0.000000  -0.000000  -0.000000  -0.013513
   17  H  2  S    0.000000   0.000000  -0.000000  -0.000000  -0.000515
   18  H  2  X    0.000000   0.000000  -0.000000   0.000125   0.000000
   19  H  2  Y    0.000000   0.000000   0.000125  -0.000000   0.000000
   20  H  2  Z    0.000000   0.000000  -0.000000  -0.000000  -0.000345

                     16         17         18         19         20
                    1.1377     1.1932     2.4670     2.4670     2.4705
                     A1         A1         B2         B1         A1  
    1  LI 1  S    0.091333   0.072309  -0.000000  -0.000000  -0.005058
    2  LI 1  S    7.866469   5.305309  -0.000000  -0.000000  -0.236195
    3  LI 1  X    0.000000   0.000000  -0.000000   0.008510  -0.000000
    4  LI 1  Y    0.000000   0.000000   0.008510  -0.000000  -0.000000
    5  LI 1  Z   -0.043958   0.128090  -0.000000  -0.000000  -0.037386
    6  LI 1  S   -2.385118  -1.764354  -0.000000  -0.000000   0.105686
    7  LI 1  X    0.000000   0.000000  -0.000000  -0.011244  -0.000000
    8  LI 1  Y    0.000000   0.000000  -0.011244  -0.000000  -0.000000
    9  LI 1  Z    0.072358  -0.188915  -0.000000  -0.000000   0.053033
   10  LI 1 XX   -2.639942  -1.713257  -0.000000  -0.000000   0.065684
   11  LI 1 YY   -2.639942  -1.713257  -0.000000  -0.000000   0.065684
   12  LI 1 ZZ   -2.632506  -1.728840  -0.000000  -0.000000   0.066375
   13  LI 1 XY    0.000000   0.000000  -0.000000  -0.000000  -0.000000
   14  LI 1 XZ    0.000000   0.000000  -0.000000  -0.000136  -0.000000
   15  LI 1 YZ    0.000000   0.000000  -0.000136  -0.000000  -0.000000
   16  H  2  S    0.676820  -1.116969  -0.000000  -0.000000   0.009178
   17  H  2  S   -0.509171   0.990660  -0.000000  -0.000000  -0.017666
   18  H  2  X    0.000000   0.000000  -0.000000   1.000016  -0.000000
   19  H  2  Y    0.000000   0.000000   1.000016  -0.000000  -0.000000
   20  H  2  Z    0.005178   0.007016  -0.000000  -0.000000   1.000495
 ...... END OF RHF CALCULATION ......
 STEP CPU TIME =     0.02 TOTAL CPU TIME =        0.0 (    0.0 MIN)
 TOTAL WALL CLOCK TIME=        0.0 SECONDS, CPU UTILIZATION IS  80.00%

     ----------------------------------------------------------------
     PROPERTY VALUES FOR THE RHF   SELF-CONSISTENT FIELD WAVEFUNCTION
     ----------------------------------------------------------------

          -----------------
          ENERGY COMPONENTS
          -----------------

         WAVEFUNCTION NORMALIZATION =       1.0000000000

                ONE ELECTRON ENERGY =     -10.7729083546
                TWO ELECTRON ENERGY =       2.6232342679
           NUCLEAR REPULSION ENERGY =       0.3239860710
                                      ------------------
                       TOTAL ENERGY =      -7.8256880157

 ELECTRON-ELECTRON POTENTIAL ENERGY =       2.6232342679
  NUCLEUS-ELECTRON POTENTIAL ENERGY =     -18.6008197605
   NUCLEUS-NUCLEUS POTENTIAL ENERGY =       0.3239860710
                                      ------------------
             TOTAL POTENTIAL ENERGY =     -15.6535994217
               TOTAL KINETIC ENERGY =       7.8279114059
                 VIRIAL RATIO (V/T) =       1.9997159664

  ...... PI ENERGY ANALYSIS ......

 ENERGY ANALYSIS:
            FOCK ENERGY=     -5.5264398331
          BARE H ENERGY=    -10.7729083546
     ELECTRONIC ENERGY =     -8.1496740938
         KINETIC ENERGY=      7.8279114059
          N-N REPULSION=      0.3239860710
           TOTAL ENERGY=     -7.8256880229
        SIGMA PART(1+2)=     -8.1496740938
               (K,V1,2)=      7.8279114059    -18.6008197605      2.6232342607
           PI PART(1+2)=      0.0000000000
               (K,V1,2)=      0.0000000000      0.0000000000      0.0000000000
  SIGMA SKELETON, ERROR=     -7.8256880229      0.0000000000
             MIXED PART= 0.00000E+00 0.00000E+00 0.00000E+00 0.00000E+00
 ...... END OF PI ENERGY ANALYSIS ......

          ---------------------------------------
          MULLIKEN AND LOWDIN POPULATION ANALYSES
          ---------------------------------------

     ATOMIC MULLIKEN POPULATION IN EACH MOLECULAR ORBITAL

                      1          2

                  2.000000   2.000000

    1             2.000000   0.628522
    2            -0.000000   1.371478

               ----- POPULATIONS IN EACH AO -----
                             MULLIKEN      LOWDIN
              1  LI 1  S      1.99808     1.98022
              2  LI 1  S     -0.07403     0.10621
              3  LI 1  X      0.00000     0.00000
              4  LI 1  Y      0.00000     0.00000
              5  LI 1  Z     -0.01162     0.00613
              6  LI 1  S      0.52759     0.33342
              7  LI 1  X      0.00000     0.00000
              8  LI 1  Y      0.00000     0.00000
              9  LI 1  Z      0.11645     0.09613
             10  LI 1 XX      0.02266     0.03082
             11  LI 1 YY      0.02266     0.03082
             12  LI 1 ZZ      0.02674     0.03381
             13  LI 1 XY      0.00000     0.00000
             14  LI 1 XZ      0.00000     0.00000
             15  LI 1 YZ      0.00000     0.00000
             16  H  2  S      0.31825     0.39825
             17  H  2  S      1.05321     0.98414
             18  H  2  X      0.00000     0.00000
             19  H  2  Y      0.00000     0.00000
             20  H  2  Z      0.00002     0.00004

          ----- MULLIKEN ATOMIC OVERLAP POPULATIONS -----
          (OFF-DIAGONAL ELEMENTS NEED TO BE MULTIPLIED BY 2)

             1           2

    1    2.5479745
    2    0.0805479   1.2909298

          TOTAL MULLIKEN AND LOWDIN ATOMIC POPULATIONS
       ATOM         MULL.POP.    CHARGE          LOW.POP.     CHARGE
    1 LI            2.628522    0.371478         2.617563    0.382437
    2 H             1.371478   -0.371478         1.382437   -0.382437

          -------------------------------
          BOND ORDER AND VALENCE ANALYSIS     BOND ORDER THRESHOLD=0.050
          -------------------------------

                   BOND                       BOND                       BOND
  ATOM PAIR DIST  ORDER      ATOM PAIR DIST  ORDER      ATOM PAIR DIST  ORDER
    1   2  4.900  0.862

                       TOTAL       BONDED        FREE
      ATOM            VALENCE     VALENCE     VALENCE
    1 LI                0.862       0.862       0.000
    2 H                 0.862       0.862       0.000

          ---------------------
          ELECTROSTATIC MOMENTS
          ---------------------

 POINT   1           X           Y           Z (BOHR)    CHARGE
                 0.000000    0.000000    1.163051        0.00 (A.U.)
         DX          DY          DZ         /D/  (DEBYE)
     0.000000    0.000000  -12.365979   12.365979
 ...... END OF PROPERTY EVALUATION ......
 STEP CPU TIME =     0.00 TOTAL CPU TIME =        0.0 (    0.0 MIN)
 TOTAL WALL CLOCK TIME=        0.1 SECONDS, CPU UTILIZATION IS  66.67%

 --------------------------   -----------------------------
 RHF-MP2 ENERGY CALCULATION   PROGRAM WRITTEN BY K.ISHIMURA
 --------------------------   -----------------------------
 NUMBER OF OCCUPIED ORBITALS            =    2
 NUMBER OF CORRELATED OCCUPIED ORBITALS =    2
 NUMBER OF VIRTUAL ORBITALS             =   18
 NUMBER OF BASIS FUNCTIONS              =   20
 NUMBER OF BASIS SHELLS                 =    7
 AO-TRANSFORMED INTEGRAL THRESHOLD      = 1.00E-09
 HALF-TRANSFORMED INTEGRAL THRESHOLD    = 1.62E-11
 TOTAL DISK REQUIRED (ALL PROCESSORS)=              0 MBYTES
                  DISK SPACE PER CORE=              0 MBYTES, USING P=    1
 MEMORY REQUIRED FOR TRANSFORMATION OF 1ST THREE INDICES=       12422
 MEMORY REQUIRED FOR    4TH INDEX TRANSF. AND MP2 ENERGY=        3084
 BEGINNING MP2 INTEGRAL TRANSFORMATION...
 BEGINNING    1ST SHELL LOOP...

 RESULTS OF MOLLER-PLESSET 2ND ORDER CORRECTION ARE
               E(0)=        -7.8256880157
               E(1)=         0.0
               E(2)=        -0.0529009507
             E(MP2)=        -7.8785889665
 SPIN-COMPONENT-SCALED MP2 RESULTS ARE
              E(2S)=        -0.0528913964
              E(2T)=        -0.0000095543
             E(2ST)=        -0.0634728604 = 6/5 * E(2S) + 1/3 * E(2T)
            SCS-MP2=        -7.8891608762
 ..... DONE WITH MP2 ENERGY .....
 STEP CPU TIME =     0.01 TOTAL CPU TIME =        0.0 (    0.0 MIN)
 TOTAL WALL CLOCK TIME=        0.1 SECONDS, CPU UTILIZATION IS  45.45%
               580000  WORDS OF DYNAMIC MEMORY USED
 EXECUTION OF GAMESS TERMINATED NORMALLY Thu Jan 17 17:53:43 2019
 DDI: 263640 bytes (0.3 MB / 0 MWords) used by master data server.

 ----------------------------------------
 CPU timing information for all processes
 ========================================
 0: 0.43 + 0.17 = 0.60
 1: 0.01 + 0.02 = 0.04
 ----------------------------------------
 ddikick.x: exited gracefully.
unset echo
----- accounting info -----
Files used on the master node bach.ad64.riken.go.jp were:
-rw-------  1 maho  staff      261  1 17 17:53 .//LiH.631g/4.9/LiH.631g.MP2.4.9.gamess.F05
-rw-r--r--  1 maho  staff   180016  1 17 17:53 .//LiH.631g/4.9/LiH.631g.MP2.4.9.gamess.F08
-rw-r--r--  1 maho  staff  1537840  1 17 17:53 .//LiH.631g/4.9/LiH.631g.MP2.4.9.gamess.F10
-rw-r--r--  1 maho  staff     7352  1 17 17:53 .//LiH.631g/4.9/LiH.631g.MP2.4.9.gamess.dat
-rw-------  1 maho  staff      261  1 17 17:53 .//LiH.631g/4.9/LiH.631g.MP2.4.9.gamess.inp
-rw-r--r--  1 maho  staff    32865  1 17 17:53 .//LiH.631g/4.9/LiH.631g.MP2.4.9.gamess.log
ls: No match.
ls: No match.
ls: No match.
2019年 1月17日 木曜日 17時53分46秒 JST
0.153u 0.113s 0:03.40 7.6%	0+0k 2+1io 0pf+0w
