----- GAMESS execution script 'rungms' -----
This job is running on host bach.ad64.riken.go.jp
under operating system Darwin at 2019年 1月17日 木曜日 17時50分39秒 JST
Available scratch disk space (Kbyte units) at beginning of the job is
Filesystem   1024-blocks       Used Available Capacity iused      ifree %iused  Mounted on
/dev/disk2s2  1953178672 1144745284 808433388    59%  984483 4293982796    0%   /Volumes/Users
GAMESS temporary binary files will be written to ./
GAMESS supplementary output files will be written to ./
Copying input file LiH.631g/3.7/LiH.631g.Hartree-Fock.3.7.gamess.inp to your run's scratch directory...
cp LiH.631g/3.7/LiH.631g.Hartree-Fock.3.7.gamess.inp .//LiH.631g/3.7/LiH.631g.Hartree-Fock.3.7.gamess.F05
unset echo
/Volumes/Users/maho/bin/gamess//ddikick.x /Volumes/Users/maho/bin/gamess//gamess.00.x LiH.631g/3.7/LiH.631g.Hartree-Fock.3.7.gamess -ddi 1 1 bach.ad64.riken.go.jp -scr ./

 Distributed Data Interface kickoff program.
 Initiating 1 compute processes on 1 nodes to run the following command:
 /Volumes/Users/maho/bin/gamess//gamess.00.x LiH.631g/3.7/LiH.631g.Hartree-Fock.3.7.gamess 

          ******************************************************
          *         GAMESS VERSION = 18 AUG 2016 (R1)          *
          *             FROM IOWA STATE UNIVERSITY             *
          * M.W.SCHMIDT, K.K.BALDRIDGE, J.A.BOATZ, S.T.ELBERT, *
          *   M.S.GORDON, J.H.JENSEN, S.KOSEKI, N.MATSUNAGA,   *
          *          K.A.NGUYEN, S.J.SU, T.L.WINDUS,           *
          *       TOGETHER WITH M.DUPUIS, J.A.MONTGOMERY       *
          *         J.COMPUT.CHEM.  14, 1347-1363(1993)        *
          **************** 64 BIT APPLE VERSION ****************

  SINCE 1993, STUDENTS AND POSTDOCS WORKING AT IOWA STATE UNIVERSITY
  AND ALSO IN THEIR VARIOUS JOBS AFTER LEAVING ISU HAVE MADE IMPORTANT
  CONTRIBUTIONS TO THE CODE:
     IVANA ADAMOVIC, CHRISTINE AIKENS, YURI ALEXEEV, POOJA ARORA,
     ANDREY ASADCHEV, ROB BELL, PRADIPTA BANDYOPADHYAY, JONATHAN BENTZ,
     BRETT BODE, KURT BRORSEN, CALEB CARLIN, GALINA CHABAN, WEI CHEN,
     CHEOL HO CHOI, PAUL DAY, ALBERT DEFUSCO, NUWAN DESILVA, TIM DUDLEY,
     DMITRI FEDOROV, GRAHAM FLETCHER, MARK FREITAG, KURT GLAESEMANN,
     DAN KEMP, GRANT MERRILL, NORIYUKI MINEZAWA, JONATHAN MULLIN,
     TAKESHI NAGATA, SEAN NEDD, HEATHER NETZLOFF, BOSILJKA NJEGIC, RYAN OLSON,
     MIKE PAK, SPENCER PRUITT, LUKE ROSKOP, JIM SHOEMAKER, LYUDMILA SLIPCHENKO,
     TONY SMITH, SAROM SOK LEANG, JIE SONG, TETSUYA TAKETSUGU, SIMON WEBB,
     PENG XU, SOOHAENG YOO, FEDERICO ZAHARIEV

  ADDITIONAL CODE HAS BEEN PROVIDED BY COLLABORATORS IN OTHER GROUPS:
     IOWA STATE UNIVERSITY:
          JOE IVANIC, AARON WEST, LAIMUTIS BYTAUTAS, KLAUS RUEDENBERG
     UNIVERSITY OF TOKYO: KIMIHIKO HIRAO, TAKAHITO NAKAJIMA,
          TAKAO TSUNEDA, MUNEAKI KAMIYA, SUSUMU YANAGISAWA,
          KIYOSHI YAGI, MAHITO CHIBA, SEIKEN TOKURA, NAOAKI KAWAKAMI
     UNIVERSITY OF AARHUS: FRANK JENSEN
     UNIVERSITY OF IOWA: VISVALDAS KAIRYS, HUI LI
     NATIONAL INST. OF STANDARDS AND TECHNOLOGY: WALT STEVENS, DAVID GARMER
     UNIVERSITY OF PISA: BENEDETTA MENNUCCI, JACOPO TOMASI
     UNIVERSITY OF MEMPHIS: HENRY KURTZ, PRAKASHAN KORAMBATH
     UNIVERSITY OF ALBERTA: TOBY ZENG, MARIUSZ KLOBUKOWSKI
     UNIVERSITY OF NEW ENGLAND: MARK SPACKMAN
     MIE UNIVERSITY: HIROAKI UMEDA
     NAT. INST. OF ADVANCED INDUSTRIAL SCIENCE AND TECHNOLOGY: KAZUO KITAURA
     MICHIGAN STATE UNIVERSITY:
          KAROL KOWALSKI, MARTA WLOCH, JEFFREY GOUR, JESSE LUTZ,
          WEI LI, PIOTR PIECUCH
     UNIVERSITY OF SILESIA: MONIKA MUSIAL, STANISLAW KUCHARSKI
     FACULTES UNIVERSITAIRES NOTRE-DAME DE LA PAIX:
          OLIVIER QUINET, BENOIT CHAMPAGNE
     UNIVERSITY OF CALIFORNIA - SANTA BARBARA: BERNARD KIRTMAN
     INSTITUTE FOR MOLECULAR SCIENCE:
          KAZUYA ISHIMURA, MICHIO KATOUDA, AND SHIGERU NAGASE
     UNIVERSITY OF NOTRE DAME: ANNA POMOGAEVA, DAN CHIPMAN
     KYUSHU UNIVERSITY:
          HARUYUKI NAKANO,
          FENG LONG GU, JACEK KORCHOWIEC, MARCIN MAKOWSKI, AND YURIKO AOKI,
          HIROTOSHI MORI AND EISAKU MIYOSHI
     PENNSYLVANIA STATE UNIVERSITY:
          TZVETELIN IORDANOV, CHET SWALINA, JONATHAN SKONE,
          SHARON HAMMES-SCHIFFER
     WASEDA UNIVERSITY:
          MASATO KOBAYASHI, TOMOKO AKAMA, TSUGUKI TOUMA,
          TAKESHI YOSHIKAWA, YASUHIRO IKABATA, JUNJI SEINO,
          YUYA NAKAJIMA, HIROMI NAKAI
     NANJING UNIVERSITY: SHUHUA LI
     UNIVERSITY OF NEBRASKA:
          PEIFENG SU, DEJUN SI, NANDUN THELLAMUREGE, YALI WANG, HUI LI
     UNIVERSITY OF ZURICH: ROBERTO PEVERATI, KIM BALDRIDGE
     N. COPERNICUS UNIVERSITY AND JACKSON STATE UNIVERSITY:
          MARIA BARYSZ
     UNIVERSITY OF COPENHAGEN: Jimmy Kromann, CASPER STEINMANN
     TOKYO INSTITUTE OF TECHNOLOGY: HIROYA NAKATA
     NAGOYA UNIVERSITY: YOSHIO NISHIMOTO, STEPHAN IRLE
     MOSCOW STATE UNIVERSITY: VLADIMIR MIRONOV

 EXECUTION OF GAMESS BEGUN Thu Jan 17 17:50:39 2019

            ECHO OF THE FIRST FEW INPUT CARDS -
 INPUT CARD> $CONTRL MULT=1 SCFTYP=RHF $END                                                 
 INPUT CARD> $BASIS GBASIS=N31 NGAUSS=6 NDFUNC=1 NPFUNC=1 $END                              
 INPUT CARD> $GUESS GUESS=HUCKEL $END                                                       
 INPUT CARD> $DATA                                                                          
 INPUT CARD>LiH...HF...6-31G* basis                                                         
 INPUT CARD>Cnv   2                                                                         
 INPUT CARD>                                                                                
 INPUT CARD>Li    3.0    0.0      0.0     0.0                                               
 INPUT CARD>H     1.0    0.0      0.0     3.7                                               
 INPUT CARD> $END                                                                           
    1000000 WORDS OF MEMORY AVAILABLE

     BASIS OPTIONS
     -------------
     GBASIS=N31          IGAUSS=       6      POLAR=POPN31  
     NDFUNC=       1     NFFUNC=       0     DIFFSP=       F
     NPFUNC=       1      DIFFS=       F     BASNAM=        


     RUN TITLE
     ---------
 LiH...HF...6-31G* basis                                                         

 THE POINT GROUP OF THE MOLECULE IS CNV     
 THE ORDER OF THE PRINCIPAL AXIS IS     2

 ATOM      ATOMIC                      COORDINATES (BOHR)
           CHARGE         X                   Y                   Z
 LI          3.0     0.0000000000        0.0000000000        0.0000000000
 H           1.0     0.0000000000        0.0000000000        6.9919861546

          INTERNUCLEAR DISTANCES (ANGS.)
          ------------------------------

                1 LI         2 H     

   1 LI      0.0000000    3.7000000  
   2 H       3.7000000    0.0000000  

  * ... LESS THAN  3.000


     ATOMIC BASIS SET
     ----------------
 THE CONTRACTED PRIMITIVE FUNCTIONS HAVE BEEN UNNORMALIZED
 THE CONTRACTED BASIS FUNCTIONS ARE NOW NORMALIZED TO UNITY

  SHELL TYPE  PRIMITIVE        EXPONENT          CONTRACTION COEFFICIENT(S)

 LI        

      1   S       1           642.4189150    0.002142607810
      1   S       2            96.7985153    0.016208871501
      1   S       3            22.0911212    0.077315572504
      1   S       4             6.2010702    0.245786052013
      1   S       5             1.9351177    0.470189004025
      1   S       6             0.6367358    0.345470845019

      2   L       7             2.3249184   -0.035091745735    0.008941508043
      2   L       8             0.6324304   -0.191232843103    0.141009464046
      2   L       9             0.0790534    1.083987794916    0.945363695309

      3   L      10             0.0359620    1.000000000000    1.000000000000

      4   D      11             0.2000000    1.000000000000

 H         

      5   S      12            18.7311370    0.033494604338
      5   S      13             2.8253944    0.234726953484
      5   S      14             0.6401217    0.813757326146

      6   S      15             0.1612778    1.000000000000

      7   P      16             1.1000000    1.000000000000

 TOTAL NUMBER OF BASIS SET SHELLS             =    7
 NUMBER OF CARTESIAN GAUSSIAN BASIS FUNCTIONS =   20
 NUMBER OF ELECTRONS                          =    4
 CHARGE OF MOLECULE                           =    0
 SPIN MULTIPLICITY                            =    1
 NUMBER OF OCCUPIED ORBITALS (ALPHA)          =    2
 NUMBER OF OCCUPIED ORBITALS (BETA )          =    2
 TOTAL NUMBER OF ATOMS                        =    2
 THE NUCLEAR REPULSION ENERGY IS        0.4290626345

 THIS MOLECULE IS RECOGNIZED AS BEING LINEAR,
 ORBITAL LZ DEGENERACY TOLERANCE ETOLLZ= 1.00E-06

     $CONTRL OPTIONS
     ---------------
 SCFTYP=RHF          RUNTYP=ENERGY       EXETYP=RUN     
 MPLEVL=       0     CITYP =NONE         CCTYP =NONE         VBTYP =NONE    
 DFTTYP=NONE         TDDFT =NONE    
 MULT  =       1     ICHARG=       0     NZVAR =       0     COORD =UNIQUE  
 PP    =NONE         RELWFN=NONE         LOCAL =NONE         NUMGRD=       F
 ISPHER=      -1     NOSYM =       0     MAXIT =      30     UNITS =ANGS    
 PLTORB=       F     MOLPLT=       F     AIMPAC=       F     FRIEND=        
 NPRINT=       7     IREST =       0     GEOM  =INPUT   
 NORMF =       0     NORMP =       0     ITOL  =      20     ICUT  =       9
 INTTYP=BEST         GRDTYP=BEST         QMTTOL= 1.0E-06

     $SYSTEM OPTIONS
     ---------------
  REPLICATED MEMORY=     1000000 WORDS (ON EVERY NODE).
 DISTRIBUTED MEMDDI=           0 MILLION WORDS IN AGGREGATE,
 MEMDDI DISTRIBUTED OVER   1 PROCESSORS IS           0 WORDS/PROCESSOR.
 TOTAL MEMORY REQUESTED ON EACH PROCESSOR=     1000000 WORDS.
 TIMLIM=      525600.00 MINUTES, OR     365.0 DAYS.
 PARALL= F  BALTYP=  DLB     KDIAG=    0  COREFL= F
 MXSEQ2=     300 MXSEQ3=     150  mem10=         0

          ----------------
          PROPERTIES INPUT
          ----------------

     MOMENTS            FIELD           POTENTIAL          DENSITY
 IEMOM =       1   IEFLD =       0   IEPOT =       0   IEDEN =       0
 WHERE =COMASS     WHERE =NUCLEI     WHERE =NUCLEI     WHERE =NUCLEI  
 OUTPUT=BOTH       OUTPUT=BOTH       OUTPUT=BOTH       OUTPUT=BOTH    
 IEMINT=       0   IEFINT=       0                     IEDINT=       0
                                                       MORB  =       0
          EXTRAPOLATION IN EFFECT
          SOSCF IN EFFECT
 ORBITAL PRINTING OPTION: NPREO=     1    20     2     1

     -------------------------------
     INTEGRAL TRANSFORMATION OPTIONS
     -------------------------------
     NWORD  =            0
     CUTOFF = 1.0E-09     MPTRAN =       0
     DIRTRF =       F     AOINTS =DUP     

          ----------------------
          INTEGRAL INPUT OPTIONS
          ----------------------
 NOPK  =       1 NORDER=       0 SCHWRZ=       F

     ------------------------------------------
     THE POINT GROUP IS CNV, NAXIS= 2, ORDER= 4
     ------------------------------------------

     DIMENSIONS OF THE SYMMETRY SUBSPACES ARE
 A1  =   11     A2  =    1     B1  =    4     B2  =    4

 ..... DONE SETTING UP THE RUN .....
 STEP CPU TIME =     0.00 TOTAL CPU TIME =        0.0 (    0.0 MIN)
 TOTAL WALL CLOCK TIME=        0.0 SECONDS, CPU UTILIZATION IS   0.00%

          ********************
          1 ELECTRON INTEGRALS
          ********************
 ...... END OF ONE-ELECTRON INTEGRALS ......
 STEP CPU TIME =     0.00 TOTAL CPU TIME =        0.0 (    0.0 MIN)
 TOTAL WALL CLOCK TIME=        0.0 SECONDS, CPU UTILIZATION IS   0.00%

          -------------
          GUESS OPTIONS
          -------------
          GUESS =HUCKEL            NORB  =       0          NORDER=       0
          MIX   =       F          PRTMO =       F          PUNMO =       F
          TOLZ  = 1.0E-08          TOLE  = 1.0E-05
          SYMDEN=       F          PURIFY=       F

 INITIAL GUESS ORBITALS GENERATED BY HUCKEL   ROUTINE.
 HUCKEL GUESS REQUIRES      4469 WORDS.

 SYMMETRIES FOR INITIAL GUESS ORBITALS FOLLOW.   BOTH SET(S).
     2 ORBITALS ARE OCCUPIED (    1 CORE ORBITALS).
     2=A1       3=A1       4=A1       5=A1       6=A1       7=A1       8=A1  
     9=A1      10=A1      11=A1      12=A2  
 ...... END OF INITIAL ORBITAL SELECTION ......
 STEP CPU TIME =     0.00 TOTAL CPU TIME =        0.0 (    0.0 MIN)
 TOTAL WALL CLOCK TIME=        0.0 SECONDS, CPU UTILIZATION IS   0.00%

                    ----------------------
                    AO INTEGRAL TECHNOLOGY
                    ----------------------
     S,P,L SHELL ROTATED AXIS INTEGRALS, REPROGRAMMED BY
        KAZUYA ISHIMURA (IMS) AND JOSE SIERRA (SYNSTAR).
     S,P,D,L SHELL ROTATED AXIS INTEGRALS PROGRAMMED BY
        KAZUYA ISHIMURA (INSTITUTE FOR MOLECULAR SCIENCE).
     S,P,D,F,G SHELL TO TOTAL QUARTET ANGULAR MOMENTUM SUM 5,
        ERIC PROGRAM BY GRAHAM FLETCHER (ELORET AND NASA ADVANCED
        SUPERCOMPUTING DIVISION, AMES RESEARCH CENTER).
     S,P,D,F,G,L SHELL GENERAL RYS QUADRATURE PROGRAMMED BY
        MICHEL DUPUIS (PACIFIC NORTHWEST NATIONAL LABORATORY).

          --------------------
          2 ELECTRON INTEGRALS
          --------------------

 THE -PK- OPTION IS OFF, THE INTEGRALS ARE NOT IN SUPERMATRIX FORM.
 STORING   15000 INTEGRALS/RECORD ON DISK, USING 12 BYTES/INTEGRAL.
 TWO ELECTRON INTEGRAL EVALUATION REQUIRES   90424 WORDS OF MEMORY.
 II,JST,KST,LST =  1  1  1  1 NREC =         1 INTLOC =    1
 II,JST,KST,LST =  2  1  1  1 NREC =         1 INTLOC =    2
 II,JST,KST,LST =  3  1  1  1 NREC =         1 INTLOC =   34
 II,JST,KST,LST =  4  1  1  1 NREC =         1 INTLOC =  214
 II,JST,KST,LST =  5  1  1  1 NREC =         1 INTLOC = 1189
 II,JST,KST,LST =  6  1  1  1 NREC =         1 INTLOC = 1856
 II,JST,KST,LST =  7  1  1  1 NREC =         1 INTLOC = 2699
 TOTAL NUMBER OF NONZERO TWO-ELECTRON INTEGRALS =                5387
          1 INTEGRAL RECORDS WERE STORED ON DISK FILE  8.
  ...... END OF TWO-ELECTRON INTEGRALS .....
 STEP CPU TIME =     0.02 TOTAL CPU TIME =        0.0 (    0.0 MIN)
 TOTAL WALL CLOCK TIME=        0.0 SECONDS, CPU UTILIZATION IS  66.67%

          --------------------------
                 RHF SCF CALCULATION
          --------------------------

     NUCLEAR ENERGY =         0.4290626345
     MAXIT =   30     NPUNCH=    2
     EXTRAP=T  DAMP=F  SHIFT=F  RSTRCT=F  DIIS=F  DEM=F  SOSCF=T
     DENSITY MATRIX CONV=  1.00E-05
     SOSCF WILL OPTIMIZE      36 ORBITAL ROTATIONS, SOGTOL=   0.250
     MEMORY REQUIRED FOR RHF ITERS=     33224 WORDS.

 ITER EX DEM     TOTAL ENERGY        E CHANGE  DENSITY CHANGE     ORB. GRAD
   1  0  0       -7.5476499279    -7.5476499279   1.194506251   0.000000000
          ---------------START SECOND ORDER SCF---------------
 SOSCF IS SCALING ROTATION ANGLE MATRIX, SQCDF=    0.247224
   2  1  0       -7.5074640109     0.0401859171   0.444864420   0.109802757
 SOSCF IS SCALING ROTATION ANGLE MATRIX, SQCDF=    0.243983
   3  2  0       -7.8178341879    -0.3103701770   0.865560459   0.070409947
   4  3  0       -7.8472952947    -0.0294611068   0.168084475   0.030393734
 SOSCF IS SCALING ROTATION ANGLE MATRIX, SQCDF=    0.146241
   5  4  0       -7.8619705736    -0.0146752789   0.712995429   0.013702034
 SOSCF IS SCALING ROTATION ANGLE MATRIX, SQCDF=    0.102714
   6  5  0       -7.7980337214     0.0639368522   0.624881529   0.067815409
   7  6  0       -7.8663795812    -0.0683458598   0.058439479   0.012329121
   8  7  0       -7.8700948375    -0.0037152564   0.083183182   0.006875949
   9  8  0       -7.8711441388    -0.0010493012   0.023897511   0.008590537
  10  9  0       -7.8715673951    -0.0004232564   0.013797345   0.004673598
  11 10  0       -7.8717817323    -0.0002143372   0.003620397   0.000495686
  12 11  0       -7.8717878136    -0.0000060813   0.000190020   0.000027318
  13 12  0       -7.8717878297    -0.0000000161   0.000032481   0.000009261
  14 13  0       -7.8717878300    -0.0000000003   0.000007450   0.000002561
  15 14  0       -7.8717878300    -0.0000000000   0.000000760   0.000000156

          -----------------
          DENSITY CONVERGED
          -----------------
     TIME TO FORM FOCK OPERATORS=       0.0 SECONDS (       0.0 SEC/ITER)
     TIME TO SOLVE SCF EQUATIONS=       0.0 SECONDS (       0.0 SEC/ITER)

 FINAL RHF ENERGY IS       -7.8717878300 AFTER  15 ITERATIONS

 LZ VALUE ANALYSIS FOR THE MOS
 ----------------------------------------
 MO     1 (    1) HAS LZ(WEIGHT)= 0.00(100.0%) 
 MO     2 (    2) HAS LZ(WEIGHT)= 0.00(100.0%) 
 MO     3 (    3) HAS LZ(WEIGHT)= 0.00(100.0%) 
 MO     4 (    4) HAS LZ(WEIGHT)=-1.00( 50.0%)  1.00( 50.0%) 
 MO     5 (    4) HAS LZ(WEIGHT)=-1.00( 50.0%)  1.00( 50.0%) 
 MO     6 (    5) HAS LZ(WEIGHT)= 0.00(100.0%) 
 MO     7 (    6) HAS LZ(WEIGHT)= 0.00(100.0%) 
 MO     8 (    7) HAS LZ(WEIGHT)=-1.00( 50.0%)  1.00( 50.0%) 
 MO     9 (    7) HAS LZ(WEIGHT)=-1.00( 50.0%)  1.00( 50.0%) 
 MO    10 (    8) HAS LZ(WEIGHT)= 0.00(100.0%) 
 MO    11 (    9) HAS LZ(WEIGHT)=-2.00( 50.0%)  2.00( 50.0%) 
 MO    12 (    9) HAS LZ(WEIGHT)=-2.00( 50.0%)  2.00( 50.0%) 
 MO    13 (   10) HAS LZ(WEIGHT)=-1.00( 50.0%)  1.00( 50.0%) 
 MO    14 (   10) HAS LZ(WEIGHT)=-1.00( 50.0%)  1.00( 50.0%) 
 MO    15 (   11) HAS LZ(WEIGHT)= 0.00(100.0%) 
 MO    16 (   12) HAS LZ(WEIGHT)= 0.00(100.0%) 
 MO    17 (   13) HAS LZ(WEIGHT)= 0.00(100.0%) 
 MO    18 (   14) HAS LZ(WEIGHT)=-1.00( 50.0%)  1.00( 50.0%) 
 MO    19 (   14) HAS LZ(WEIGHT)=-1.00( 50.0%)  1.00( 50.0%) 
 MO    20 (   15) HAS LZ(WEIGHT)= 0.00(100.0%) 

          ------------
          EIGENVECTORS
          ------------

                      1          2          3          4          5
                   -2.5728    -0.2042    -0.0375     0.0295     0.0295
                     A1         A1         A1         B2         B1  
    1  LI 1  S    0.998756  -0.087262  -0.160280  -0.000000  -0.000000
    2  LI 1  S   -0.012245  -0.051206   0.023889  -0.000000  -0.000000
    3  LI 1  X   -0.000000  -0.000000  -0.000000  -0.000000   0.209169
    4  LI 1  Y   -0.000000  -0.000000  -0.000000   0.209169  -0.000000
    5  LI 1  Z   -0.003551   0.027677  -0.126370  -0.000000  -0.000000
    6  LI 1  S    0.001954   0.442907   0.750011  -0.000000  -0.000000
    7  LI 1  X   -0.000000  -0.000000  -0.000000  -0.000000   0.823874
    8  LI 1  Y   -0.000000  -0.000000  -0.000000   0.823874  -0.000000
    9  LI 1  Z    0.002429   0.205093  -0.363958  -0.000000  -0.000000
   10  LI 1 XX    0.008810   0.022155   0.039075  -0.000000  -0.000000
   11  LI 1 YY    0.008810   0.022155   0.039075  -0.000000  -0.000000
   12  LI 1 ZZ    0.008616   0.047089   0.038519  -0.000000  -0.000000
   13  LI 1 XY   -0.000000  -0.000000  -0.000000  -0.000000  -0.000000
   14  LI 1 XZ   -0.000000  -0.000000  -0.000000  -0.000000  -0.031722
   15  LI 1 YZ   -0.000000  -0.000000  -0.000000  -0.031722  -0.000000
   16  H  2  S    0.000061   0.242835  -0.091497  -0.000000  -0.000000
   17  H  2  S   -0.000149   0.565856  -0.210160  -0.000000  -0.000000
   18  H  2  X   -0.000000  -0.000000  -0.000000  -0.000000   0.001476
   19  H  2  Y   -0.000000  -0.000000  -0.000000   0.001476  -0.000000
   20  H  2  Z   -0.000045  -0.001670  -0.001080  -0.000000  -0.000000

                      6          7          8          9         10
                    0.0807     0.1542     0.1732     0.1732     0.2223
                     A1         A1         B2         B1         A1  
    1  LI 1  S   -0.053335   0.059172  -0.000000  -0.000000   0.073320
    2  LI 1  S    0.680638   2.172397  -0.000000  -0.000000   2.411979
    3  LI 1  X   -0.000000  -0.000000  -0.000000   1.658752  -0.000000
    4  LI 1  Y   -0.000000  -0.000000   1.658752  -0.000000  -0.000000
    5  LI 1  Z    0.171037  -1.241354  -0.000000  -0.000000   1.155008
    6  LI 1  S   -0.186131  -1.715771  -0.000000  -0.000000  -1.942205
    7  LI 1  X   -0.000000  -0.000000  -0.000000  -1.456821  -0.000000
    8  LI 1  Y   -0.000000  -0.000000  -1.456821  -0.000000  -0.000000
    9  LI 1  Z    0.739189   0.979456  -0.000000  -0.000000  -1.251492
   10  LI 1 XX   -0.008404  -0.227695  -0.000000  -0.000000  -0.215640
   11  LI 1 YY   -0.008404  -0.227695  -0.000000  -0.000000  -0.215640
   12  LI 1 ZZ   -0.118472  -0.155559  -0.000000  -0.000000  -0.226070
   13  LI 1 XY   -0.000000  -0.000000  -0.000000  -0.000000  -0.000000
   14  LI 1 XZ   -0.000000  -0.000000  -0.000000  -0.050741  -0.000000
   15  LI 1 YZ   -0.000000  -0.000000  -0.050741  -0.000000  -0.000000
   16  H  2  S   -0.119437   0.026779  -0.000000  -0.000000   0.032544
   17  H  2  S   -0.540955   0.032699  -0.000000  -0.000000   0.405735
   18  H  2  X   -0.000000  -0.000000  -0.000000  -0.000814  -0.000000
   19  H  2  Y   -0.000000  -0.000000  -0.000814  -0.000000  -0.000000
   20  H  2  Z   -0.003817   0.002470  -0.000000  -0.000000  -0.001932

                     11         12         13         14         15
                    0.5086     0.5086     0.5169     0.5169     0.5236
                     A1         A2         B1         B2         A1  
    1  LI 1  S   -0.000000   0.000000  -0.000000  -0.000000  -0.005351
    2  LI 1  S   -0.000000   0.000000  -0.000000  -0.000000  -0.006545
    3  LI 1  X   -0.000000   0.000000   0.090987  -0.000000   0.000000
    4  LI 1  Y   -0.000000   0.000000  -0.000000   0.090987   0.000000
    5  LI 1  Z   -0.000000   0.000000  -0.000000  -0.000000   0.063593
    6  LI 1  S   -0.000000   0.000000  -0.000000  -0.000000   0.052911
    7  LI 1  X   -0.000000   0.000000  -0.047908  -0.000000   0.000000
    8  LI 1  Y   -0.000000   0.000000  -0.000000  -0.047908   0.000000
    9  LI 1  Z   -0.000000   0.000000  -0.000000  -0.000000   0.019912
   10  LI 1 XX   -0.866025   0.000000  -0.000000  -0.000000  -0.507480
   11  LI 1 YY    0.866025   0.000000  -0.000000  -0.000000  -0.507480
   12  LI 1 ZZ   -0.000000   0.000000  -0.000000  -0.000000   0.981891
   13  LI 1 XY   -0.000000   1.000000  -0.000000  -0.000000   0.000000
   14  LI 1 XZ   -0.000000   0.000000   0.998206  -0.000000   0.000000
   15  LI 1 YZ   -0.000000   0.000000  -0.000000   0.998206   0.000000
   16  H  2  S   -0.000000   0.000000  -0.000000  -0.000000  -0.094906
   17  H  2  S   -0.000000   0.000000  -0.000000  -0.000000  -0.035426
   18  H  2  X   -0.000000   0.000000   0.001232  -0.000000   0.000000
   19  H  2  Y   -0.000000   0.000000  -0.000000   0.001232   0.000000
   20  H  2  Z   -0.000000   0.000000  -0.000000  -0.000000  -0.007492

                     16         17         18         19         20
                    1.1557     1.2147     2.4636     2.4636     2.4720
                     A1         A1         B2         B1         A1  
    1  LI 1  S    0.104479   0.056244  -0.000000   0.000000   0.000518
    2  LI 1  S    9.005701   2.833864  -0.000000   0.000000   0.464141
    3  LI 1  X    0.000000   0.000000  -0.000000   0.017923   0.000000
    4  LI 1  Y    0.000000   0.000000   0.017923   0.000000   0.000000
    5  LI 1  Z   -0.009951   0.093397  -0.000000   0.000000   0.007374
    6  LI 1  S   -2.744353  -1.107237  -0.000000   0.000000  -0.098116
    7  LI 1  X    0.000000   0.000000  -0.000000  -0.029198   0.000000
    8  LI 1  Y    0.000000   0.000000  -0.029198   0.000000   0.000000
    9  LI 1  Z    0.045341  -0.268678  -0.000000   0.000000   0.037764
   10  LI 1 XX   -3.021033  -0.822008  -0.000000   0.000000  -0.172882
   11  LI 1 YY   -3.021033  -0.822008  -0.000000   0.000000  -0.172882
   12  LI 1 ZZ   -2.988168  -0.986556  -0.000000   0.000000  -0.151875
   13  LI 1 XY    0.000000   0.000000  -0.000000   0.000000   0.000000
   14  LI 1 XZ    0.000000   0.000000  -0.000000  -0.001822   0.000000
   15  LI 1 YZ    0.000000   0.000000  -0.001822   0.000000   0.000000
   16  H  2  S    0.355804  -1.270726  -0.000000   0.000000   0.018294
   17  H  2  S   -0.281881   1.167242  -0.000000   0.000000  -0.033776
   18  H  2  X    0.000000   0.000000  -0.000000   1.000137   0.000000
   19  H  2  Y    0.000000   0.000000   1.000137   0.000000   0.000000
   20  H  2  Z   -0.027076  -0.000927  -0.000000   0.000000   1.000915
 ...... END OF RHF CALCULATION ......
 STEP CPU TIME =     0.01 TOTAL CPU TIME =        0.0 (    0.0 MIN)
 TOTAL WALL CLOCK TIME=        0.1 SECONDS, CPU UTILIZATION IS  33.33%

     ----------------------------------------------------------------
     PROPERTY VALUES FOR THE RHF   SELF-CONSISTENT FIELD WAVEFUNCTION
     ----------------------------------------------------------------

          -----------------
          ENERGY COMPONENTS
          -----------------

         WAVEFUNCTION NORMALIZATION =       1.0000000000

                ONE ELECTRON ENERGY =     -11.0478116451
                TWO ELECTRON ENERGY =       2.7469611806
           NUCLEAR REPULSION ENERGY =       0.4290626345
                                      ------------------
                       TOTAL ENERGY =      -7.8717878300

 ELECTRON-ELECTRON POTENTIAL ENERGY =       2.7469611806
  NUCLEUS-ELECTRON POTENTIAL ENERGY =     -18.8388660962
   NUCLEUS-NUCLEUS POTENTIAL ENERGY =       0.4290626345
                                      ------------------
             TOTAL POTENTIAL ENERGY =     -15.6628422811
               TOTAL KINETIC ENERGY =       7.7910544512
                 VIRIAL RATIO (V/T) =       2.0103623174

  ...... PI ENERGY ANALYSIS ......

 ENERGY ANALYSIS:
            FOCK ENERGY=     -5.5538892424
          BARE H ENERGY=    -11.0478116451
     ELECTRONIC ENERGY =     -8.3008504437
         KINETIC ENERGY=      7.7910544512
          N-N REPULSION=      0.4290626345
           TOTAL ENERGY=     -7.8717878092
        SIGMA PART(1+2)=     -8.3008504437
               (K,V1,2)=      7.7910544512    -18.8388660962      2.7469612013
           PI PART(1+2)=      0.0000000000
               (K,V1,2)=      0.0000000000      0.0000000000      0.0000000000
  SIGMA SKELETON, ERROR=     -7.8717878092      0.0000000000
             MIXED PART= 0.00000E+00 0.00000E+00 0.00000E+00 0.00000E+00
 ...... END OF PI ENERGY ANALYSIS ......

          ---------------------------------------
          MULLIKEN AND LOWDIN POPULATION ANALYSES
          ---------------------------------------

     ATOMIC MULLIKEN POPULATION IN EACH MOLECULAR ORBITAL

                      1          2

                  2.000000   2.000000

    1             2.000000   0.688971
    2            -0.000000   1.311029

               ----- POPULATIONS IN EACH AO -----
                             MULLIKEN      LOWDIN
              1  LI 1  S      1.99794     1.97918
              2  LI 1  S     -0.04971     0.09974
              3  LI 1  X      0.00000     0.00000
              4  LI 1  Y      0.00000     0.00000
              5  LI 1  Z      0.01661     0.04287
              6  LI 1  S      0.47769     0.31337
              7  LI 1  X      0.00000     0.00000
              8  LI 1  Y      0.00000     0.00000
              9  LI 1  Z      0.18713     0.17510
             10  LI 1 XX      0.01376     0.02225
             11  LI 1 YY      0.01376     0.02225
             12  LI 1 ZZ      0.03180     0.03970
             13  LI 1 XY      0.00000     0.00000
             14  LI 1 XZ      0.00000     0.00000
             15  LI 1 YZ      0.00000     0.00000
             16  H  2  S      0.32290     0.38455
             17  H  2  S      0.98807     0.92086
             18  H  2  X      0.00000     0.00000
             19  H  2  Y      0.00000     0.00000
             20  H  2  Z      0.00005     0.00012

          ----- MULLIKEN ATOMIC OVERLAP POPULATIONS -----
          (OFF-DIAGONAL ELEMENTS NEED TO BE MULTIPLIED BY 2)

             1           2

    1    2.4980933
    2    0.1908778   1.1201511

          TOTAL MULLIKEN AND LOWDIN ATOMIC POPULATIONS
       ATOM         MULL.POP.    CHARGE          LOW.POP.     CHARGE
    1 LI            2.688971    0.311029         2.694475    0.305525
    2 H             1.311029   -0.311029         1.305525   -0.305525

          -------------------------------
          BOND ORDER AND VALENCE ANALYSIS     BOND ORDER THRESHOLD=0.050
          -------------------------------

                   BOND                       BOND                       BOND
  ATOM PAIR DIST  ORDER      ATOM PAIR DIST  ORDER      ATOM PAIR DIST  ORDER
    1   2  3.700  0.903

                       TOTAL       BONDED        FREE
      ATOM            VALENCE     VALENCE     VALENCE
    1 LI                0.903       0.903       0.000
    2 H                 0.903       0.903       0.000

          ---------------------
          ELECTROSTATIC MOMENTS
          ---------------------

 POINT   1           X           Y           Z (BOHR)    CHARGE
                 0.000000    0.000000    0.878222       -0.00 (A.U.)
         DX          DY          DZ         /D/  (DEBYE)
     0.000000    0.000000  -10.660174   10.660174
 ...... END OF PROPERTY EVALUATION ......
 STEP CPU TIME =     0.01 TOTAL CPU TIME =        0.0 (    0.0 MIN)
 TOTAL WALL CLOCK TIME=        0.1 SECONDS, CPU UTILIZATION IS  44.44%
               580000  WORDS OF DYNAMIC MEMORY USED
 EXECUTION OF GAMESS TERMINATED NORMALLY Thu Jan 17 17:50:39 2019
 DDI: 263640 bytes (0.3 MB / 0 MWords) used by master data server.

 ----------------------------------------
 CPU timing information for all processes
 ========================================
 0: 0.30 + 0.12 = 0.42
 1: 0.01 + 0.02 = 0.03
 ----------------------------------------
 ddikick.x: exited gracefully.
unset echo
----- accounting info -----
Files used on the master node bach.ad64.riken.go.jp were:
-rw-------  1 maho  staff      223  1 17 17:50 .//LiH.631g/3.7/LiH.631g.Hartree-Fock.3.7.gamess.F05
-rw-r--r--  1 maho  staff   180016  1 17 17:50 .//LiH.631g/3.7/LiH.631g.Hartree-Fock.3.7.gamess.F08
-rw-r--r--  1 maho  staff  1537840  1 17 17:50 .//LiH.631g/3.7/LiH.631g.Hartree-Fock.3.7.gamess.F10
-rw-r--r--  1 maho  staff     7352  1 17 17:50 .//LiH.631g/3.7/LiH.631g.Hartree-Fock.3.7.gamess.dat
-rw-------  1 maho  staff      223  1 17 17:50 .//LiH.631g/3.7/LiH.631g.Hartree-Fock.3.7.gamess.inp
-rw-r--r--  1 maho  staff    29699  1 17 17:50 .//LiH.631g/3.7/LiH.631g.Hartree-Fock.3.7.gamess.log
ls: No match.
ls: No match.
ls: No match.
2019年 1月17日 木曜日 17時50分43秒 JST
0.145u 0.117s 0:03.65 6.8%	0+0k 8+1io 31pf+0w
