----- GAMESS execution script 'rungms' -----
This job is running on host localhost
under operating system Linux at Thu Jan 17 18:48:25 JST 2019
Available scratch disk space (Kbyte units) at beginning of the job is
Filesystem     1K-blocks      Used Available Use% Mounted on
/dev/sda1      895286904 141746408 708039468  17% /
GAMESS temporary binary files will be written to .
GAMESS supplementary output files will be written to .
Copying input file N2.SV/3.9/N2.SV.fullCI.3.9.gamess.inp to your run's scratch directory...
cp N2.SV/3.9/N2.SV.fullCI.3.9.gamess.inp ./N2.SV/3.9/N2.SV.fullCI.3.9.gamess.F05
unset echo
/work/pubchem/pm6/pkg/gamess_intel/ddikick.x /work/pubchem/pm6/pkg/gamess_intel/gamess.00.x N2.SV/3.9/N2.SV.fullCI.3.9.gamess -ddi 12 12 localhost localhost localhost localhost localhost localhost localhost localhost localhost localhost localhost localhost -scr .

 Distributed Data Interface kickoff program.
 Initiating 12 compute processes on 12 nodes to run the following command:
 /work/pubchem/pm6/pkg/gamess_intel/gamess.00.x N2.SV/3.9/N2.SV.fullCI.3.9.gamess 

          ******************************************************
          *         GAMESS VERSION =  5 DEC 2014 (R1)          *
          *             FROM IOWA STATE UNIVERSITY             *
          * M.W.SCHMIDT, K.K.BALDRIDGE, J.A.BOATZ, S.T.ELBERT, *
          *   M.S.GORDON, J.H.JENSEN, S.KOSEKI, N.MATSUNAGA,   *
          *          K.A.NGUYEN, S.J.SU, T.L.WINDUS,           *
          *       TOGETHER WITH M.DUPUIS, J.A.MONTGOMERY       *
          *         J.COMPUT.CHEM.  14, 1347-1363(1993)        *
          **************** 64 BIT INTEL VERSION ****************

  SINCE 1993, STUDENTS AND POSTDOCS WORKING AT IOWA STATE UNIVERSITY
  AND ALSO IN THEIR VARIOUS JOBS AFTER LEAVING ISU HAVE MADE IMPORTANT
  CONTRIBUTIONS TO THE CODE:
     IVANA ADAMOVIC, CHRISTINE AIKENS, YURI ALEXEEV, POOJA ARORA,
     ANDREY ASADCHEV, ROB BELL, PRADIPTA BANDYOPADHYAY, JONATHAN BENTZ,
     BRETT BODE, KURT BRORSEN, CALEB CARLIN, GALINA CHABAN, WEI CHEN,
     CHEOL HO CHOI, PAUL DAY, ALBERT DEFUSCO, NUWAN DESILVA, TIM DUDLEY,
     DMITRI FEDOROV, GRAHAM FLETCHER, MARK FREITAG, KURT GLAESEMANN,
     DAN KEMP, GRANT MERRILL, NORIYUKI MINEZAWA, JONATHAN MULLIN,
     TAKESHI NAGATA, SEAN NEDD, HEATHER NETZLOFF, BOSILJKA NJEGIC, RYAN OLSON,
     MIKE PAK, SPENCER PRUITT, LUKE ROSKOP, JIM SHOEMAKER, LYUDMILA SLIPCHENKO,
     TONY SMITH, SAROM SOK, JIE SONG, TETSUYA TAKETSUGU, SIMON WEBB,
     PENG XU, SOOHAENG YOO, FEDERICO ZAHARIEV

  ADDITIONAL CODE HAS BEEN PROVIDED BY COLLABORATORS IN OTHER GROUPS:
     IOWA STATE UNIVERSITY:
          JOE IVANIC, AARON WEST, LAIMUTIS BYTAUTAS, KLAUS RUEDENBERG
     UNIVERSITY OF TOKYO: KIMIHIKO HIRAO, TAKAHITO NAKAJIMA,
          TAKAO TSUNEDA, MUNEAKI KAMIYA, SUSUMU YANAGISAWA,
          KIYOSHI YAGI, MAHITO CHIBA, SEIKEN TOKURA, NAOAKI KAWAKAMI
     UNIVERSITY OF AARHUS: FRANK JENSEN
     UNIVERSITY OF IOWA: VISVALDAS KAIRYS, HUI LI
     NATIONAL INST. OF STANDARDS AND TECHNOLOGY: WALT STEVENS, DAVID GARMER
     UNIVERSITY OF PISA: BENEDETTA MENNUCCI, JACOPO TOMASI
     UNIVERSITY OF MEMPHIS: HENRY KURTZ, PRAKASHAN KORAMBATH
     UNIVERSITY OF ALBERTA: TOBY ZENG, MARIUSZ KLOBUKOWSKI
     UNIVERSITY OF NEW ENGLAND: MARK SPACKMAN
     MIE UNIVERSITY: HIROAKI UMEDA
     NAT. INST. OF ADVANCED INDUSTRIAL SCIENCE AND TECHNOLOGY: KAZUO KITAURA
     MICHIGAN STATE UNIVERSITY:
          KAROL KOWALSKI, MARTA WLOCH, JEFFREY GOUR, JESSE LUTZ,
          WEI LI, PIOTR PIECUCH
     UNIVERSITY OF SILESIA: MONIKA MUSIAL, STANISLAW KUCHARSKI
     FACULTES UNIVERSITAIRES NOTRE-DAME DE LA PAIX:
          OLIVIER QUINET, BENOIT CHAMPAGNE
     UNIVERSITY OF CALIFORNIA - SANTA BARBARA: BERNARD KIRTMAN
     INSTITUTE FOR MOLECULAR SCIENCE:
          KAZUYA ISHIMURA, MICHIO KATOUDA, AND SHIGERU NAGASE
     UNIVERSITY OF NOTRE DAME: ANNA POMOGAEVA, DAN CHIPMAN
     KYUSHU UNIVERSITY:
          HARUYUKI NAKANO,
          FENG LONG GU, JACEK KORCHOWIEC, MARCIN MAKOWSKI, AND YURIKO AOKI,
          HIROTOSHI MORI AND EISAKU MIYOSHI
     PENNSYLVANIA STATE UNIVERSITY:
          TZVETELIN IORDANOV, CHET SWALINA, JONATHAN SKONE,
          SHARON HAMMES-SCHIFFER
     WASEDA UNIVERSITY:
          MASATO KOBAYASHI, TOMOKO AKAMA, TSUGUKI TOUMA,
          TAKESHI YOSHIKAWA, YASUHIRO IKABATA, HIROMI NAKAI
     NANJING UNIVERSITY: SHUHUA LI
     UNIVERSITY OF NEBRASKA:
          PEIFENG SU, DEJUN SI, NANDUN THELLAMUREGE, YALI WANG, HUI LI
     UNIVERSITY OF ZURICH: ROBERTO PEVERATI, KIM BALDRIDGE
     N. COPERNICUS UNIVERSITY AND JACKSON STATE UNIVERSITY:
          MARIA BARYSZ
     UNIVERSITY OF COPENHAGEN: CASPER STEINMANN
     TOKYO INSTITUTE OF TECHNOLOGY: HIROYA NAKATA
     NAGOYA UNIVERSITY: YOSHIO NISHIMOTO, STEPHAN IRLE


 PARALLEL VERSION RUNNING ON       12 PROCESSORS IN       12 NODES.

 EXECUTION OF GAMESS BEGUN Thu Jan 17 18:48:25 2019

            ECHO OF THE FIRST FEW INPUT CARDS -
 INPUT CARD> $CONTRL SCFTYP=RHF CITYP=ALDET $END                                            
 INPUT CARD> $GUESS GUESS=HUCKEL $END                                                       
 INPUT CARD> $SYSTEM MWORDS=300 $END                                                        
 INPUT CARD> $CIDET SZ=0 GROUP=C2V NCORE=2 NACT=16 NELS=10 NSTGSS=6 $END                    
 INPUT CARD> $DATA                                                                          
 INPUT CARD>N2...HF...Double-zeta basis                                                     
 INPUT CARD>Cnv   2                                                                         
 INPUT CARD>                                                                                
 INPUT CARD>N     7.0    0.0      0.0     0.0                                               
 INPUT CARD>S   7                                                                           
 INPUT CARD>  1   5909.0000000              0.0011900                                       
 INPUT CARD>  2    887.5000000              0.0090990                                       
 INPUT CARD>  3    204.7000000              0.0441450                                       
 INPUT CARD>  4     59.8400000              0.1504640                                       
 INPUT CARD>  5     20.0000000              0.3567410                                       
 INPUT CARD>  6      7.1930000              0.4465330                                       
 INPUT CARD>  7      2.6860000              0.1456030                                       
 INPUT CARD>S   2                                                                           
 INPUT CARD>  1      7.1930000             -0.1604050                                       
 INPUT CARD>  2      0.7000000              1.0582150                                       
 INPUT CARD>S   1                                                                           
 INPUT CARD>  1      0.2133000              1.0000000                                       
 INPUT CARD>P   4                                                                           
 INPUT CARD>  1     26.7900000              0.0182540                                       
 INPUT CARD>  2      5.9560000              0.1164610                                       
 INPUT CARD>  3      1.7070000              0.3901780                                       
 INPUT CARD>  4      0.5314000              0.6371020                                       
 INPUT CARD>P   1                                                                           
 INPUT CARD>  1      0.1654000              1.0000000                                       
 INPUT CARD>                                                                                
 INPUT CARD>N     7.0    0.0      0.0     3.9                                               
 INPUT CARD>S   7                                                                           
 INPUT CARD>  1   5909.0000000              0.0011900                                       
 INPUT CARD>  2    887.5000000              0.0090990                                       
 INPUT CARD>  3    204.7000000              0.0441450                                       
 INPUT CARD>  4     59.8400000              0.1504640                                       
 INPUT CARD>  5     20.0000000              0.3567410                                       
 INPUT CARD>  6      7.1930000              0.4465330                                       
 INPUT CARD>  7      2.6860000              0.1456030                                       
 INPUT CARD>S   2                                                                           
 INPUT CARD>  1      7.1930000             -0.1604050                                       
 INPUT CARD>  2      0.7000000              1.0582150                                       
 INPUT CARD>S   1                                                                           
 INPUT CARD>  1      0.2133000              1.0000000                                       
 INPUT CARD>P   4                                                                           
 INPUT CARD>  1     26.7900000              0.0182540                                       
 INPUT CARD>  2      5.9560000              0.1164610                                       
 INPUT CARD>  3      1.7070000              0.3901780                                       
 INPUT CARD>  4      0.5314000              0.6371020                                       
 INPUT CARD>P   1                                                                           
  300000000 WORDS OF MEMORY AVAILABLE


     RUN TITLE
     ---------
 N2...HF...Double-zeta basis                                                     

 THE POINT GROUP OF THE MOLECULE IS CNV     
 THE ORDER OF THE PRINCIPAL AXIS IS     2

 ATOM      ATOMIC                      COORDINATES (BOHR)
           CHARGE         X                   Y                   Z
 N           7.0     0.0000000000        0.0000000000        0.0000000000
 N           7.0     0.0000000000        0.0000000000        7.3699313521

          INTERNUCLEAR DISTANCES (ANGS.)
          ------------------------------

                1 N          2 N     

   1 N       0.0000000    3.9000000  
   2 N       3.9000000    0.0000000  

  * ... LESS THAN  3.000


     ATOMIC BASIS SET
     ----------------
 THE CONTRACTED PRIMITIVE FUNCTIONS HAVE BEEN UNNORMALIZED
 THE CONTRACTED BASIS FUNCTIONS ARE NOW NORMALIZED TO UNITY

  SHELL TYPE  PRIMITIVE        EXPONENT          CONTRACTION COEFFICIENT(S)

 N         

      1   S       1          5909.0000000    0.001189999548
      1   S       2           887.5000000    0.009098996542
      1   S       3           204.7000000    0.044144983225
      1   S       4            59.8400000    0.150463942825
      1   S       5            20.0000000    0.356740864442
      1   S       6             7.1930000    0.446532830321
      1   S       7             2.6860000    0.145602944672

      2   S       8             7.1930000   -0.160405033446
      2   S       9             0.7000000    1.058215220651

      3   S      10             0.2133000    1.000000000000

      4   P      11            26.7900000    0.018253998243
      4   P      12             5.9560000    0.116460988791
      4   P      13             1.7070000    0.390177962446
      4   P      14             0.5314000    0.637101938680

      5   P      15             0.1654000    1.000000000000

 N         

      6   S      16          5909.0000000    0.001189999548
      6   S      17           887.5000000    0.009098996542
      6   S      18           204.7000000    0.044144983225
      6   S      19            59.8400000    0.150463942825
      6   S      20            20.0000000    0.356740864442
      6   S      21             7.1930000    0.446532830321
      6   S      22             2.6860000    0.145602944672

      7   S      23             7.1930000   -0.160405033446
      7   S      24             0.7000000    1.058215220651

      8   S      25             0.2133000    1.000000000000

      9   P      26            26.7900000    0.018253998243
      9   P      27             5.9560000    0.116460988791
      9   P      28             1.7070000    0.390177962446
      9   P      29             0.5314000    0.637101938680

     10   P      30             0.1654000    1.000000000000

 TOTAL NUMBER OF BASIS SET SHELLS             =   10
 NUMBER OF CARTESIAN GAUSSIAN BASIS FUNCTIONS =   18
 NUMBER OF ELECTRONS                          =   14
 CHARGE OF MOLECULE                           =    0
 SPIN MULTIPLICITY                            =    1
 NUMBER OF OCCUPIED ORBITALS (ALPHA)          =    7
 NUMBER OF OCCUPIED ORBITALS (BETA )          =    7
 TOTAL NUMBER OF ATOMS                        =    2
 THE NUCLEAR REPULSION ENERGY IS        6.6486372340

 THIS MOLECULE IS RECOGNIZED AS BEING LINEAR,
 ORBITAL LZ DEGENERACY TOLERANCE ETOLLZ= 1.00E-06

     $CONTRL OPTIONS
     ---------------
 SCFTYP=RHF          RUNTYP=ENERGY       EXETYP=RUN     
 MPLEVL=       0     CITYP =ALDET        CCTYP =NONE         VBTYP =NONE    
 DFTTYP=NONE         TDDFT =NONE    
 MULT  =       1     ICHARG=       0     NZVAR =       0     COORD =UNIQUE  
 PP    =NONE         RELWFN=NONE         LOCAL =NONE         NUMGRD=       F
 ISPHER=      -1     NOSYM =       0     MAXIT =      30     UNITS =ANGS    
 PLTORB=       F     MOLPLT=       F     AIMPAC=       F     FRIEND=        
 NPRINT=       7     IREST =       0     GEOM  =INPUT   
 NORMF =       0     NORMP =       0     ITOL  =      20     ICUT  =       9
 INTTYP=BEST         GRDTYP=BEST         QMTTOL= 1.0E-06

     $SYSTEM OPTIONS
     ---------------
  REPLICATED MEMORY=   300000000 WORDS (ON EVERY NODE).
 DISTRIBUTED MEMDDI=           0 MILLION WORDS IN AGGREGATE,
 MEMDDI DISTRIBUTED OVER  12 PROCESSORS IS           0 WORDS/PROCESSOR.
 TOTAL MEMORY REQUESTED ON EACH PROCESSOR=   300000000 WORDS.
 TIMLIM=      525600.00 MINUTES, OR     365.0 DAYS.
 PARALL= T  BALTYP=  DLB     KDIAG=    0  COREFL= F
 MXSEQ2=     300 MXSEQ3=     150  mem10=         0

          ----------------
          PROPERTIES INPUT
          ----------------

     MOMENTS            FIELD           POTENTIAL          DENSITY
 IEMOM =       1   IEFLD =       0   IEPOT =       0   IEDEN =       0
 WHERE =COMASS     WHERE =NUCLEI     WHERE =NUCLEI     WHERE =NUCLEI  
 OUTPUT=BOTH       OUTPUT=BOTH       OUTPUT=BOTH       OUTPUT=BOTH    
 IEMINT=       0   IEFINT=       0                     IEDINT=       0
                                                       MORB  =       0
          EXTRAPOLATION IN EFFECT
          SOSCF IN EFFECT
 ORBITAL PRINTING OPTION: NPREO=     1    18     2     1

     -------------------------------
     INTEGRAL TRANSFORMATION OPTIONS
     -------------------------------
     NWORD  =            0
     CUTOFF = 1.0E-09     MPTRAN =       0
     DIRTRF =       F     AOINTS =DUP     

          ----------------------
          INTEGRAL INPUT OPTIONS
          ----------------------
 NOPK  =       1 NORDER=       0 SCHWRZ=       F

     ------------------------------------------
     THE POINT GROUP IS CNV, NAXIS= 2, ORDER= 4
     ------------------------------------------

     DIMENSIONS OF THE SYMMETRY SUBSPACES ARE
 A1  =   10     A2  =    0     B1  =    4     B2  =    4

 ..... DONE SETTING UP THE RUN .....
 CPU     0: STEP CPU TIME=     0.02 TOTAL CPU TIME=        0.0 (    0.0 MIN)
 TOTAL WALL CLOCK TIME=        0.0 SECONDS, CPU UTILIZATION IS 100.00%

          ********************
          1 ELECTRON INTEGRALS
          ********************
 ...... END OF ONE-ELECTRON INTEGRALS ......
 CPU     0: STEP CPU TIME=     0.00 TOTAL CPU TIME=        0.0 (    0.0 MIN)
 TOTAL WALL CLOCK TIME=        0.1 SECONDS, CPU UTILIZATION IS  33.33%

          -------------
          GUESS OPTIONS
          -------------
          GUESS =HUCKEL            NORB  =       0          NORDER=       0
          MIX   =       F          PRTMO =       F          PUNMO =       F
          TOLZ  = 1.0E-08          TOLE  = 1.0E-05
          SYMDEN=       F          PURIFY=       F

 INITIAL GUESS ORBITALS GENERATED BY HUCKEL   ROUTINE.
 HUCKEL GUESS REQUIRES      4352 WORDS.

 SYMMETRIES FOR INITIAL GUESS ORBITALS FOLLOW.   BOTH SET(S).
     7 ORBITALS ARE OCCUPIED (    2 CORE ORBITALS).
     3=A1       4=A1       5=A1       6=B1       7=B2       8=B1       9=B2  
    10=A1      11=A1      12=A1      13=A1      14=A1      15=B1      16=B1  
    17=B2  
 ...... END OF INITIAL ORBITAL SELECTION ......
 CPU     0: STEP CPU TIME=     0.00 TOTAL CPU TIME=        0.0 (    0.0 MIN)
 TOTAL WALL CLOCK TIME=        0.1 SECONDS, CPU UTILIZATION IS  33.33%

                    ----------------------
                    AO INTEGRAL TECHNOLOGY
                    ----------------------
     S,P,L SHELL ROTATED AXIS INTEGRALS, REPROGRAMMED BY
        KAZUYA ISHIMURA (IMS) AND JOSE SIERRA (SYNSTAR).
     S,P,D,L SHELL ROTATED AXIS INTEGRALS PROGRAMMED BY
        KAZUYA ISHIMURA (INSTITUTE FOR MOLECULAR SCIENCE).
     S,P,D,F,G SHELL TO TOTAL QUARTET ANGULAR MOMENTUM SUM 5,
        ERIC PROGRAM BY GRAHAM FLETCHER (ELORET AND NASA ADVANCED
        SUPERCOMPUTING DIVISION, AMES RESEARCH CENTER).
     S,P,D,F,G,L SHELL GENERAL RYS QUADRATURE PROGRAMMED BY
        MICHEL DUPUIS (PACIFIC NORTHWEST NATIONAL LABORATORY).

          --------------------
          2 ELECTRON INTEGRALS
          --------------------

 THE -PK- OPTION IS OFF, THE INTEGRALS ARE NOT IN SUPERMATRIX FORM.
 STORING   15000 INTEGRALS/RECORD ON DISK, USING 12 BYTES/INTEGRAL.
 TWO ELECTRON INTEGRAL EVALUATION REQUIRES   89411 WORDS OF MEMORY.
 II,JST,KST,LST =  1  1  1  1 NREC =         1 INTLOC =    1
 II,JST,KST,LST =  2  1  1  1 NREC =         1 INTLOC =    2
 II,JST,KST,LST =  3  1  1  1 NREC =         1 INTLOC =    7
 II,JST,KST,LST =  4  1  1  1 NREC =         1 INTLOC =   21
 II,JST,KST,LST =  5  1  1  1 NREC =         1 INTLOC =   66
 II,JST,KST,LST =  6  1  1  1 NREC =         1 INTLOC =   66
 II,JST,KST,LST =  7  1  1  1 NREC =         1 INTLOC =   72
 II,JST,KST,LST =  8  1  1  1 NREC =         1 INTLOC =  182
 II,JST,KST,LST =  9  1  1  1 NREC =         1 INTLOC =  289
 II,JST,KST,LST = 10  1  1  1 NREC =         1 INTLOC =  653
 TOTAL NUMBER OF NONZERO TWO-ELECTRON INTEGRALS =                3338
         12 INTEGRAL RECORDS WERE STORED ON DISK FILE  8.
  ...... END OF TWO-ELECTRON INTEGRALS .....
 CPU     0: STEP CPU TIME=     0.02 TOTAL CPU TIME=        0.0 (    0.0 MIN)
 TOTAL WALL CLOCK TIME=        0.1 SECONDS, CPU UTILIZATION IS  57.14%

          --------------------------
                 RHF SCF CALCULATION
          --------------------------

     NUCLEAR ENERGY =         6.6486372340
     MAXIT =   30     NPUNCH=    2
     EXTRAP=T  DAMP=F  SHIFT=F  RSTRCT=F  DIIS=F  DEM=F  SOSCF=T
     DENSITY MATRIX CONV=  1.00E-06
     SOSCF WILL OPTIMIZE      77 ORBITAL ROTATIONS, SOGTOL=   0.250
     MEMORY REQUIRED FOR RHF ITERS=     32828 WORDS.

 ITER EX DEM     TOTAL ENERGY        E CHANGE  DENSITY CHANGE     ORB. GRAD
   1  0  0     -107.6992423698  -107.6992423698   0.276602973   0.000000000
          ---------------START SECOND ORDER SCF---------------
   2  1  0     -107.8863240830    -0.1870817132   0.117858379   0.063119590
   3  2  0     -107.9019533196    -0.0156292366   0.025937108   0.024332524
   4  3  0     -107.9049543882    -0.0030010686   0.002934231   0.001608859
   5  4  0     -107.9049688722    -0.0000144840   0.000988604   0.000382305
   6  5  0     -107.9049696443    -0.0000007721   0.000029104   0.000022420
   7  6  0     -107.9049696480    -0.0000000037   0.000011781   0.000005037
   8  7  0     -107.9049696483    -0.0000000003   0.000000834   0.000000427
   9  8  0     -107.9049696483    -0.0000000000   0.000000046   0.000000024

          -----------------
          DENSITY CONVERGED
          -----------------
     TIME TO FORM FOCK OPERATORS=       0.0 SECONDS (       0.0 SEC/ITER)
     TIME TO SOLVE SCF EQUATIONS=       0.0 SECONDS (       0.0 SEC/ITER)

 FINAL RHF ENERGY IS     -107.9049696483 AFTER   9 ITERATIONS

 LZ VALUE ANALYSIS FOR THE MOS
 ----------------------------------------
 MO     1 (    1) HAS LZ(WEIGHT)= 0.00(100.0%) 
 MO     2 (    2) HAS LZ(WEIGHT)= 0.00(100.0%) 
 MO     3 (    3) HAS LZ(WEIGHT)= 0.00(100.0%) 
 MO     4 (    4) HAS LZ(WEIGHT)= 0.00(100.0%) 
 MO     5 (    5) HAS LZ(WEIGHT)= 0.00(100.0%) 
 MO     6 (    6) HAS LZ(WEIGHT)=-1.00( 50.0%)  1.00( 50.0%) 
 MO     7 (    6) HAS LZ(WEIGHT)=-1.00( 50.0%)  1.00( 50.0%) 
 MO     8 (    7) HAS LZ(WEIGHT)=-1.00( 50.0%)  1.00( 50.0%) 
 MO     9 (    7) HAS LZ(WEIGHT)=-1.00( 50.0%)  1.00( 50.0%) 
 MO    10 (    8) HAS LZ(WEIGHT)= 0.00(100.0%) 
 MO    11 (    9) HAS LZ(WEIGHT)= 0.00(100.0%) 
 MO    12 (   10) HAS LZ(WEIGHT)=-1.00( 50.0%)  1.00( 50.0%) 
 MO    13 (   10) HAS LZ(WEIGHT)=-1.00( 50.0%)  1.00( 50.0%) 
 MO    14 (   11) HAS LZ(WEIGHT)=-1.00( 50.0%)  1.00( 50.0%) 
 MO    15 (   11) HAS LZ(WEIGHT)=-1.00( 50.0%)  1.00( 50.0%) 
 MO    16 (   12) HAS LZ(WEIGHT)= 0.00(100.0%) 
 MO    17 (   13) HAS LZ(WEIGHT)= 0.00(100.0%) 
 MO    18 (   14) HAS LZ(WEIGHT)= 0.00(100.0%) 

          ------------
          EIGENVECTORS
          ------------

                      1          2          3          4          5
                  -15.8248   -15.8248    -1.0328    -1.0252    -0.3305
                     A1         A1         A1         A1         A1  
    1  N  1  S    0.706975  -0.706979  -0.173234  -0.173667   0.003505
    2  N  1  S   -0.000133   0.000126   0.408968   0.413353  -0.019323
    3  N  1  S    0.000915  -0.000883   0.359227   0.355420   0.007967
    4  N  1  X    0.000000   0.000000   0.000000   0.000000   0.000000
    5  N  1  Y    0.000000   0.000000   0.000000   0.000000   0.000000
    6  N  1  Z    0.000115  -0.000070   0.002796  -0.008115   0.490100
    7  N  1  X    0.000000   0.000000   0.000000   0.000000   0.000000
    8  N  1  Y    0.000000   0.000000   0.000000   0.000000   0.000000
    9  N  1  Z   -0.000032   0.000045   0.004745  -0.005778   0.303898
   10  N  2  S    0.706975   0.706979  -0.173234   0.173667   0.003505
   11  N  2  S   -0.000133  -0.000126   0.408968  -0.413353  -0.019323
   12  N  2  S    0.000915   0.000883   0.359227  -0.355420   0.007967
   13  N  2  X    0.000000   0.000000   0.000000   0.000000   0.000000
   14  N  2  Y    0.000000   0.000000   0.000000   0.000000   0.000000
   15  N  2  Z   -0.000115  -0.000070  -0.002796  -0.008115  -0.490100
   16  N  2  X    0.000000   0.000000   0.000000   0.000000   0.000000
   17  N  2  Y    0.000000   0.000000   0.000000   0.000000   0.000000
   18  N  2  Z    0.000032   0.000045  -0.004745  -0.005778  -0.303898

                      6          7          8          9         10
                   -0.3226    -0.3226    -0.1876    -0.1876    -0.1728
                     B1         B2         B1         B2         A1  
    1  N  1  S    0.000000   0.000000   0.000000   0.000000  -0.004473
    2  N  1  S    0.000000   0.000000   0.000000   0.000000   0.017029
    3  N  1  S    0.000000   0.000000   0.000000   0.000000   0.000041
    4  N  1  X    0.504820   0.000000  -0.507416   0.000000   0.000000
    5  N  1  Y    0.000000   0.504820   0.000000  -0.507416   0.000000
    6  N  1  Z    0.000000   0.000000   0.000000   0.000000   0.513668
    7  N  1  X    0.294940   0.000000  -0.293864   0.000000   0.000000
    8  N  1  Y    0.000000   0.294940   0.000000  -0.293864   0.000000
    9  N  1  Z    0.000000   0.000000   0.000000   0.000000   0.293771
   10  N  2  S    0.000000   0.000000   0.000000   0.000000   0.004473
   11  N  2  S    0.000000   0.000000   0.000000   0.000000  -0.017029
   12  N  2  S    0.000000   0.000000   0.000000   0.000000  -0.000041
   13  N  2  X    0.504820   0.000000   0.507416   0.000000   0.000000
   14  N  2  Y    0.000000   0.504820   0.000000   0.507416   0.000000
   15  N  2  Z    0.000000   0.000000   0.000000   0.000000   0.513668
   16  N  2  X    0.294940   0.000000   0.293864   0.000000   0.000000
   17  N  2  Y    0.000000   0.294940   0.000000   0.293864   0.000000
   18  N  2  Z    0.000000   0.000000   0.000000   0.000000   0.293771

                     11         12         13         14         15
                    0.5832     0.6297     0.6297     0.6530     0.6530
                     A1         B1         B2         B1         B2  
    1  N  1  S   -0.010814   0.000000   0.000000   0.000000   0.000000
    2  N  1  S    0.106867   0.000000   0.000000   0.000000   0.000000
    3  N  1  S   -0.094742   0.000000   0.000000   0.000000   0.000000
    4  N  1  X    0.000000  -0.659812   0.000000   0.661617   0.000000
    5  N  1  Y    0.000000   0.000000  -0.659812   0.000000   0.661617
    6  N  1  Z    0.657527   0.000000   0.000000   0.000000   0.000000
    7  N  1  X    0.000000   0.771726   0.000000  -0.785319   0.000000
    8  N  1  Y    0.000000   0.000000   0.771726   0.000000  -0.785319
    9  N  1  Z   -0.721578   0.000000   0.000000   0.000000   0.000000
   10  N  2  S   -0.010814   0.000000   0.000000   0.000000   0.000000
   11  N  2  S    0.106867   0.000000   0.000000   0.000000   0.000000
   12  N  2  S   -0.094742   0.000000   0.000000   0.000000   0.000000
   13  N  2  X    0.000000  -0.659812   0.000000  -0.661617   0.000000
   14  N  2  Y    0.000000   0.000000  -0.659812   0.000000  -0.661617
   15  N  2  Z   -0.657527   0.000000   0.000000   0.000000   0.000000
   16  N  2  X    0.000000   0.771726   0.000000   0.785319   0.000000
   17  N  2  Y    0.000000   0.000000   0.771726   0.000000   0.785319
   18  N  2  Z    0.721578   0.000000   0.000000   0.000000   0.000000

                     16         17         18
                    0.7122     0.8956     0.9283
                     A1         A1         A1  
    1  N  1  S   -0.018488  -0.090627   0.088532
    2  N  1  S    0.204422   1.102660  -1.093188
    3  N  1  S   -0.192915  -1.096006   1.094118
    4  N  1  X    0.000000   0.000000   0.000000
    5  N  1  Y    0.000000   0.000000   0.000000
    6  N  1  Z   -0.656994  -0.067166  -0.131902
    7  N  1  X    0.000000   0.000000   0.000000
    8  N  1  Y    0.000000   0.000000   0.000000
    9  N  1  Z    0.814985   0.094915   0.182464
   10  N  2  S    0.018488  -0.090627  -0.088532
   11  N  2  S   -0.204422   1.102660   1.093188
   12  N  2  S    0.192915  -1.096006  -1.094118
   13  N  2  X    0.000000   0.000000   0.000000
   14  N  2  Y    0.000000   0.000000   0.000000
   15  N  2  Z   -0.656994   0.067166  -0.131902
   16  N  2  X    0.000000   0.000000   0.000000
   17  N  2  Y    0.000000   0.000000   0.000000
   18  N  2  Z    0.814985  -0.094915   0.182464
 ...... END OF RHF CALCULATION ......
 CPU     0: STEP CPU TIME=     0.00 TOTAL CPU TIME=        0.0 (    0.0 MIN)
 TOTAL WALL CLOCK TIME=        0.1 SECONDS, CPU UTILIZATION IS  50.00%

     ----------------------------------------------------------------
     PROPERTY VALUES FOR THE RHF   SELF-CONSISTENT FIELD WAVEFUNCTION
     ----------------------------------------------------------------

          -----------------
          ENERGY COMPONENTS
          -----------------

         WAVEFUNCTION NORMALIZATION =       1.0000000000

                ONE ELECTRON ENERGY =    -159.7405642057
                TWO ELECTRON ENERGY =      45.1869573234
           NUCLEAR REPULSION ENERGY =       6.6486372340
                                      ------------------
                       TOTAL ENERGY =    -107.9049696483

 ELECTRON-ELECTRON POTENTIAL ENERGY =      45.1869573234
  NUCLEUS-ELECTRON POTENTIAL ENERGY =    -267.2155014031
   NUCLEUS-NUCLEUS POTENTIAL ENERGY =       6.6486372340
                                      ------------------
             TOTAL POTENTIAL ENERGY =    -215.3799068457
               TOTAL KINETIC ENERGY =     107.4749371974
                 VIRIAL RATIO (V/T) =       2.0040012347

  ...... PI ENERGY ANALYSIS ......

 ENERGY ANALYSIS:
            FOCK ENERGY=    -69.3666491879
          BARE H ENERGY=   -159.7405642057
     ELECTRONIC ENERGY =   -114.5536066968
         KINETIC ENERGY=    107.4749371974
          N-N REPULSION=      6.6486372340
           TOTAL ENERGY=   -107.9049694628
        SIGMA PART(1+2)=   -102.8857334642
               (K,V1,2)=    101.0222705595   -238.7175761244     34.8095721007
           PI PART(1+2)=    -11.6678732327
               (K,V1,2)=      6.4526666379    -28.4979252788     10.3773854082
  SIGMA SKELETON, ERROR=    -96.2370962301     -0.0000000000
             MIXED PART= 0.00000E+00 0.00000E+00 0.00000E+00 0.00000E+00
 ...... END OF PI ENERGY ANALYSIS ......

          ---------------------------------------
          MULLIKEN AND LOWDIN POPULATION ANALYSES
          ---------------------------------------

               ----- POPULATIONS IN EACH AO -----
                             MULLIKEN      LOWDIN
              1  N  1  S      2.00013     1.99716
              2  N  1  S      1.06748     1.03644
              3  N  1  S      0.93226     0.96616
              4  N  1  X      0.66688     0.64128
              5  N  1  Y      0.66688     0.64128
              6  N  1  Z      0.63955     0.61414
              7  N  1  X      0.33312     0.35872
              8  N  1  Y      0.33312     0.35872
              9  N  1  Z      0.36058     0.38610
             10  N  2  S      2.00013     1.99716
             11  N  2  S      1.06748     1.03644
             12  N  2  S      0.93226     0.96616
             13  N  2  X      0.66688     0.64128
             14  N  2  Y      0.66688     0.64128
             15  N  2  Z      0.63955     0.61414
             16  N  2  X      0.33312     0.35872
             17  N  2  Y      0.33312     0.35872
             18  N  2  Z      0.36058     0.38610

          ----- MULLIKEN ATOMIC OVERLAP POPULATIONS -----
          (OFF-DIAGONAL ELEMENTS NEED TO BE MULTIPLIED BY 2)

             1           2

    1    6.9748212
    2    0.0251788   6.9748212

          TOTAL MULLIKEN AND LOWDIN ATOMIC POPULATIONS
       ATOM         MULL.POP.    CHARGE          LOW.POP.     CHARGE
    1 N             7.000000   -0.000000         7.000000    0.000000
    2 N             7.000000    0.000000         7.000000   -0.000000

          ---------------------
          ELECTROSTATIC MOMENTS
          ---------------------

 POINT   1           X           Y           Z (BOHR)    CHARGE
                 0.000000    0.000000    3.684966       -0.00 (A.U.)
         DX          DY          DZ         /D/  (DEBYE)
     0.000000    0.000000    0.000000    0.000000
 ...... END OF PROPERTY EVALUATION ......
 CPU     0: STEP CPU TIME=     0.00 TOTAL CPU TIME=        0.0 (    0.0 MIN)
 TOTAL WALL CLOCK TIME=        0.1 SECONDS, CPU UTILIZATION IS  36.36%

 DETERMINANT CI OPTIONS   NRNFG   NPFLG
 INTEGRAL TRANSFORMATION    1       0
 DIAGONALIZE HAMILTONIAN    1       0
 FORM 1E- DENSITY MATRIX    1       0
 FORM 2E- DENSITY MATRIX    0       0

     --------------------------------------------------
          AMES LABORATORY DETERMINANTAL FULL CI
     PROGRAM WRITTEN BY JOE IVANIC AND KLAUS RUEDENBERG
     --------------------------------------------------

 THE POINT GROUP                  =   C2V     
 THE STATE SYMMETRY               =   A1      
 NUMBER OF CORE ORBITALS          =    2
 NUMBER OF ACTIVE ORBITALS        =   16
 NUMBER OF ALPHA ELECTRONS        =    7 (   5 ACTIVE)
 NUMBER OF BETA ELECTRONS         =    7 (   5 ACTIVE)
 NUMBER OF OCCUPIED ORBITALS      =   18
 NUMBER OF CI STATES REQUESTED    =    1
 NUMBER OF CI STARTING VECTORS    =    6
 MAX. NO. OF CI EXPANSION VECTORS =   12
 SIZE OF INITIAL CI GUESS MATRIX  =  300
 MAX. NO. OF CI ITERS/STATE       =  100
 CI DIAGONALIZATION CRITERION     = 1.00E-06
 CI PROPERTIES WILL BE FOUND FOR ROOT NUMBER   1
 1E- DENSITY MATRIX OPTIONS ARE 1

 CORRELATION ENERGY ANALYSIS      =    F

 SYMMETRIES FOR THE   2 CORE,  16 ACTIVE ARE

     CORE= A1    A1  

   ACTIVE= A1    A1    A1    B1    B2    B1    B2    A1    A1    B1  
           B2    B1    B2    A1    A1    A1  

     --------------------------------------------
     PARTIAL TWO ELECTRON INTEGRAL TRANSFORMATION
     --------------------------------------------

 NUMBER OF CORE MOLECULAR ORBITALS     =    2
 NUMBER OF OCCUPIED MOLECULAR ORBITALS =   18
 TOTAL NUMBER OF MOLECULAR ORBITALS    =   18
 TOTAL NUMBER OF ATOMIC ORBITALS       =   18
 THRESHOLD FOR KEEPING TRANSFORMED 2E- INTEGRALS = 1.000E-09

 -------------------------------     ------------------------------
 DISTRIBUTED DATA TRANSFORMATION     PROGRAM WRITTEN BY G. FLETCHER
 -------------------------------     ------------------------------

 THE DISTRIBUTED MEMORY REQUIRED FOR THIS STEP IS MEMDDI=         1 MWORDS
 CREATING DISTRIBUTED STORAGE FOR [OCC OCC|OCC OCC] INTEGRALS
 DDI: Creating Array [0] - 171 x 171 = 29241 words.
 CREATING WORKSPACE OF SIZE VVOO
 DDI: Creating Array [1] - 171 x 171 = 29241 words.
 FOR   12 PROCESSORS, THE REPLICATED MEMORY NEEDED IS       58507 WORDS.

      DIRECT 4-INDEX TRANSFORMATION 
      SCHWARZ INEQUALITY TEST SKIPPED          0 INTEGRAL BLOCKS
 ----- FROZEN CORE ENERGY =       -92.7206572364
 ... END OF INTEGRAL TRANSFORMATION ...
 CPU     0: STEP CPU TIME=     0.00 TOTAL CPU TIME=        0.0 (    0.0 MIN)
 TOTAL WALL CLOCK TIME=        0.2 SECONDS, CPU UTILIZATION IS  25.00%

     --------------------------------------------------
          AMES LABORATORY DETERMINANTAL FULL CI
     PROGRAM WRITTEN BY JOE IVANIC AND KLAUS RUEDENBERG
     --------------------------------------------------

 THE NUMBER OF DETERMINANTS HAVING SPACE SYMMETRY A1 
 IN POINT GROUP C2V  WITH SZ=  0.0 IS        4777056
 THE DETERMINANT FULL CI REQUIRES       119865995 WORDS
 INITIAL CI VECTOR GUESS TIME  :          1.2
 INITIAL FULL CI ITERATION TIME:          6.2

 ITERATION      ENERGY           GRADIENT
     0     -108.7420778677     0.45779467
     1     -108.8425564823     0.18539691
     2     -108.8548871583     0.06955305
     3     -108.8564315390     0.03035468
     4     -108.8567285382     0.01530809
     5     -108.8568002589     0.00623618
     6     -108.8568110447     0.00220876
     7     -108.8568121588     0.00139565
     8     -108.8568126423     0.00102325
     9     -108.8568131277     0.00075691
    10     -108.8568132713     0.00049358
    11     -108.8568133328     0.00030785
    12     -108.8568133520     0.00019310
    13     -108.8568133577     0.00011281
    14     -108.8568133613     0.00007340
    15     -108.8568133630     0.00005648
    16     -108.8568133641     0.00003702
    17     -108.8568133646     0.00003918
    18     -108.8568133650     0.00003644
    19     -108.8568133653     0.00003301
    20     -108.8568133657     0.00002970
    21     -108.8568133661     0.00003200
    22     -108.8568133666     0.00003564
    23     -108.8568133680     0.00007652
    24     -108.8568133709     0.00012558
    25     -108.8568133755     0.00014632
    26     -108.8568133916     0.00022583
    27     -108.8568134482     0.00057902
    28     -108.8568143174     0.00371275
    29     -108.8568430446     0.00828042
    30     -108.8568573601     0.00503366
    31     -108.8568624127     0.00370979
    32     -108.8568668005     0.00283134
    33     -108.8568688298     0.00207807
    34     -108.8568698544     0.00127522
    35     -108.8568702411     0.00085295
    36     -108.8568704150     0.00054139
    37     -108.8568704670     0.00033392
    38     -108.8568704934     0.00020887
    39     -108.8568705065     0.00016055
    40     -108.8568705126     0.00009754
    41     -108.8568705148     0.00006331
    42     -108.8568705157     0.00004922
    43     -108.8568705161     0.00003336
    44     -108.8568705165     0.00002684
    45     -108.8568705167     0.00001984
    46     -108.8568705168     0.00001218
    47     -108.8568705168     0.00000811
    48     -108.8568705168     0.00000626
    49     -108.8568705168     0.00000372
    50     -108.8568705168     0.00000244
    51     -108.8568705168     0.00000185
    52     -108.8568705168     0.00000115
    53     -108.8568705168     0.00000070

 CONVERGED STATE    1 ENERGY=     -108.8568705168 IN   53 ITERS

 ALL STATES CONVERGED.

 CI EIGENVECTORS WILL BE LABELED IN GROUP=C2V     
 PRINTING CI COEFFICIENTS LARGER THAN  0.050000

 STATE   1  ENERGY=      -108.8568705168  S=  0.00  SZ=  0.00  SPACE SYM=A1  

      ALPHA       |      BETA        | COEFFICIENT
------------------|------------------|------------
 1111100000000000 | 1111100000000000 |   0.2472438
 1111001000000000 | 1111001000000000 |  -0.2455264
 1110110000000000 | 1110110000000000 |  -0.2455264
 1110011000000000 | 1110011000000000 |   0.2438304
 1101100100000000 | 1101100100000000 |  -0.2360619
 1101001100000000 | 1101001100000000 |   0.2344790
 1100110100000000 | 1100110100000000 |   0.2344790
 1100011100000000 | 1100011100000000 |  -0.2329162
 1111010000000000 | 1110101000000000 |   0.1636784
 1110101000000000 | 1111010000000000 |   0.1636784
 1101110000000000 | 1110100100000000 |   0.1603374
 1110100100000000 | 1101110000000000 |   0.1603374
 1111000100000000 | 1101101000000000 |  -0.1603374
 1101101000000000 | 1111000100000000 |  -0.1603374
 1101011000000000 | 1110001100000000 |   0.1592454
 1110001100000000 | 1101011000000000 |   0.1592454
 1110010100000000 | 1100111000000000 |  -0.1592454
 1100111000000000 | 1110010100000000 |  -0.1592454
 1101010100000000 | 1100101100000000 |  -0.1563137
 1100101100000000 | 1101010100000000 |  -0.1563137
 1110110000000000 | 1111001000000000 |   0.0818464
 1111001000000000 | 1110110000000000 |   0.0818464
 1111100000000000 | 1110011000000000 |   0.0818321
 1110011000000000 | 1111100000000000 |   0.0818321
 1101100100000000 | 1111001000000000 |  -0.0802187
 1111001000000000 | 1101100100000000 |  -0.0802187
 1110110000000000 | 1101100100000000 |   0.0802187
 1101100100000000 | 1110110000000000 |   0.0802187
 1101001100000000 | 1111100000000000 |   0.0801187
 1111100000000000 | 1101001100000000 |   0.0801187
 1111100000000000 | 1100110100000000 |  -0.0801187
 1100110100000000 | 1111100000000000 |  -0.0801187
 1100110100000000 | 1110011000000000 |  -0.0796726
 1110011000000000 | 1100110100000000 |  -0.0796726
 1110011000000000 | 1101001100000000 |   0.0796726
 1101001100000000 | 1110011000000000 |   0.0796726
 1100011100000000 | 1110110000000000 |   0.0795728
 1110110000000000 | 1100011100000000 |   0.0795728
 1111001000000000 | 1100011100000000 |  -0.0795728
 1100011100000000 | 1111001000000000 |  -0.0795728
 1100110100000000 | 1101001100000000 |  -0.0781639
 1101001100000000 | 1100110100000000 |  -0.0781639
 1101100100000000 | 1100011100000000 |  -0.0781498
 1100011100000000 | 1101100100000000 |  -0.0781498
 ..... DONE WITH DETERMINANT CI COMPUTATION .....
 CPU     0: STEP CPU TIME=   137.89 TOTAL CPU TIME=      137.9 (    2.3 MIN)
 TOTAL WALL CLOCK TIME=      178.7 SECONDS, CPU UTILIZATION IS  77.19%

     ---------------------------
     ONE PARTICLE DENSITY MATRIX
     ---------------------------

 DENSITY MATRIX WILL BE SAVED FOR   1-TH STATE WITH S= 0.00

 CI EIGENSTATE   1 TOTAL ENERGY =     -108.8568705168

          NATURAL ORBITALS IN ATOMIC ORBITAL BASIS
          ----------------------------------------

                      1          2          3          4          5
                    2.0000     2.0000     1.9851     1.9847     1.0292
                     A1         A1         A1         A1         A1  
    1  N  1  S    0.706975   0.706979  -0.170878  -0.171172   0.000727
    2  N  1  S   -0.000133  -0.000126   0.380786   0.382969  -0.002991
    3  N  1  S    0.000915   0.000883   0.387030   0.385634  -0.000353
    4  N  1  X    0.000000   0.000000   0.000000   0.000000   0.000000
    5  N  1  Y    0.000000   0.000000   0.000000   0.000000   0.000000
    6  N  1  Z    0.000115   0.000070  -0.001345   0.001327   0.554018
    7  N  1  X    0.000000   0.000000   0.000000   0.000000   0.000000
    8  N  1  Y    0.000000   0.000000   0.000000   0.000000   0.000000
    9  N  1  Z   -0.000032  -0.000045   0.001611  -0.001862   0.229502
   10  N  2  S    0.706975  -0.706979  -0.170878   0.171172   0.000727
   11  N  2  S   -0.000133   0.000126   0.380786  -0.382969  -0.002991
   12  N  2  S    0.000915  -0.000883   0.387030  -0.385634  -0.000353
   13  N  2  X    0.000000   0.000000   0.000000   0.000000   0.000000
   14  N  2  Y    0.000000   0.000000   0.000000   0.000000   0.000000
   15  N  2  Z   -0.000115   0.000070   0.001345   0.001327  -0.554018
   16  N  2  X    0.000000   0.000000   0.000000   0.000000   0.000000
   17  N  2  Y    0.000000   0.000000   0.000000   0.000000   0.000000
   18  N  2  Z    0.000032  -0.000045  -0.001611  -0.001862  -0.229502

                      6          7          8          9         10
                    1.0003     1.0003     0.9908     0.9908     0.9619
                     B1         B2         B2         B1         A1  
    1  N  1  S    0.000000   0.000000   0.000000   0.000000  -0.000844
    2  N  1  S    0.000000   0.000000   0.000000   0.000000   0.002891
    3  N  1  S    0.000000   0.000000   0.000000   0.000000   0.000474
    4  N  1  X    0.559042   0.000000   0.000000  -0.561020   0.000000
    5  N  1  Y    0.000000   0.559042  -0.561020   0.000000   0.000000
    6  N  1  Z    0.000000   0.000000   0.000000   0.000000   0.566055
    7  N  1  X    0.228321   0.000000   0.000000  -0.227092   0.000000
    8  N  1  Y    0.000000   0.228321  -0.227092   0.000000   0.000000
    9  N  1  Z    0.000000   0.000000   0.000000   0.000000   0.225706
   10  N  2  S    0.000000   0.000000   0.000000   0.000000   0.000844
   11  N  2  S    0.000000   0.000000   0.000000   0.000000  -0.002891
   12  N  2  S    0.000000   0.000000   0.000000   0.000000  -0.000474
   13  N  2  X    0.559042   0.000000   0.000000   0.561020   0.000000
   14  N  2  Y    0.000000   0.559042   0.561020   0.000000   0.000000
   15  N  2  Z    0.000000   0.000000   0.000000   0.000000   0.566055
   16  N  2  X    0.228321   0.000000   0.000000   0.227092   0.000000
   17  N  2  Y    0.000000   0.228321   0.227092   0.000000   0.000000
   18  N  2  Z    0.000000   0.000000   0.000000   0.000000   0.225706

                     11         12         13         14         15
                    0.0111     0.0107     0.0064     0.0060     0.0060
                     A1         A1         A1         B2         B1  
    1  N  1  S   -0.095289  -0.094916  -0.008517   0.000000   0.000000
    2  N  1  S    1.111105   1.117688   0.123887   0.000000   0.000000
    3  N  1  S   -1.082552  -1.094195  -0.132675   0.000000   0.000000
    4  N  1  X    0.000000   0.000000   0.000000   0.000000  -0.614546
    5  N  1  Y    0.000000   0.000000   0.000000  -0.614546   0.000000
    6  N  1  Z    0.058562  -0.049712  -0.605551   0.000000   0.000000
    7  N  1  X    0.000000   0.000000   0.000000   0.000000   0.793991
    8  N  1  Y    0.000000   0.000000   0.000000   0.793991   0.000000
    9  N  1  Z   -0.062526   0.057053   0.751982   0.000000   0.000000
   10  N  2  S   -0.095289   0.094916  -0.008517   0.000000   0.000000
   11  N  2  S    1.111105  -1.117688   0.123887   0.000000   0.000000
   12  N  2  S   -1.082552   1.094195  -0.132675   0.000000   0.000000
   13  N  2  X    0.000000   0.000000   0.000000   0.000000  -0.614546
   14  N  2  Y    0.000000   0.000000   0.000000  -0.614546   0.000000
   15  N  2  Z   -0.058562  -0.049712   0.605551   0.000000   0.000000
   16  N  2  X    0.000000   0.000000   0.000000   0.000000   0.793991
   17  N  2  Y    0.000000   0.000000   0.000000   0.793991   0.000000
   18  N  2  Z    0.062526   0.057053  -0.751982   0.000000   0.000000

                     16         17         18
                    0.0058     0.0058     0.0053
                     B1         B2         A1  
    1  N  1  S    0.000000   0.000000   0.007098
    2  N  1  S    0.000000   0.000000  -0.109999
    3  N  1  S    0.000000   0.000000   0.121064
    4  N  1  X    0.616818   0.000000   0.000000
    5  N  1  Y    0.000000   0.616818   0.000000
    6  N  1  Z    0.000000   0.000000  -0.624554
    7  N  1  X   -0.807162   0.000000   0.000000
    8  N  1  Y    0.000000  -0.807162   0.000000
    9  N  1  Z    0.000000   0.000000   0.854182
   10  N  2  S    0.000000   0.000000  -0.007098
   11  N  2  S    0.000000   0.000000   0.109999
   12  N  2  S    0.000000   0.000000  -0.121064
   13  N  2  X   -0.616818   0.000000   0.000000
   14  N  2  Y    0.000000  -0.616818   0.000000
   15  N  2  Z    0.000000   0.000000  -0.624554
   16  N  2  X    0.807162   0.000000   0.000000
   17  N  2  Y    0.000000   0.807162   0.000000
   18  N  2  Z    0.000000   0.000000   0.854182
 ..... DONE WITH ONE PARTICLE DENSITY MATRIX .....
 CPU     0: STEP CPU TIME=     1.02 TOTAL CPU TIME=      138.9 (    2.3 MIN)
 TOTAL WALL CLOCK TIME=      180.0 SECONDS, CPU UTILIZATION IS  77.20%

     --------------------------------------------------------
     ALDET CI PROPERTIES...FOR THE WAVEFUNCTION OF STATE    1
               USING THE EXPECTATION VALUE DENSITY
     --------------------------------------------------------

          -----------------
          ENERGY COMPONENTS
          -----------------

         WAVEFUNCTION NORMALIZATION =       1.0000000000

                ONE ELECTRON ENERGY =    -160.9671839571
                TWO ELECTRON ENERGY =      45.4616762063
           NUCLEAR REPULSION ENERGY =       6.6486372340
                                      ------------------
                       TOTAL ENERGY =    -108.8568705168

 ELECTRON-ELECTRON POTENTIAL ENERGY =      45.4616762063
  NUCLEUS-ELECTRON POTENTIAL ENERGY =    -269.6786743652
   NUCLEUS-NUCLEUS POTENTIAL ENERGY =       6.6486372340
                                      ------------------
             TOTAL POTENTIAL ENERGY =    -217.5683609249
               TOTAL KINETIC ENERGY =     108.7114904081
                 VIRIAL RATIO (V/T) =       2.0013373021

          ---------------------------------------
          MULLIKEN AND LOWDIN POPULATION ANALYSES
          ---------------------------------------

               ----- POPULATIONS IN EACH AO -----
                             MULLIKEN      LOWDIN
              1  N  1  S      2.00012     1.99634
              2  N  1  S      0.98051     0.98290
              3  N  1  S      1.01505     1.01639
              4  N  1  X      0.75976     0.72080
              5  N  1  Y      0.75976     0.72080
              6  N  1  Z      0.75940     0.72041
              7  N  1  X      0.24165     0.28061
              8  N  1  Y      0.24165     0.28061
              9  N  1  Z      0.24211     0.28115
             10  N  2  S      2.00012     1.99634
             11  N  2  S      0.98051     0.98290
             12  N  2  S      1.01505     1.01639
             13  N  2  X      0.75976     0.72080
             14  N  2  Y      0.75976     0.72080
             15  N  2  Z      0.75940     0.72041
             16  N  2  X      0.24165     0.28061
             17  N  2  Y      0.24165     0.28061
             18  N  2  Z      0.24211     0.28115

          ----- MULLIKEN ATOMIC OVERLAP POPULATIONS -----
          (OFF-DIAGONAL ELEMENTS NEED TO BE MULTIPLIED BY 2)

             1           2

    1    6.9993070
    2    0.0006930   6.9993070

          TOTAL MULLIKEN AND LOWDIN ATOMIC POPULATIONS
       ATOM         MULL.POP.    CHARGE          LOW.POP.     CHARGE
    1 N             7.000000    0.000000         7.000000    0.000000
    2 N             7.000000    0.000000         7.000000    0.000000

          ---------------------
          ELECTROSTATIC MOMENTS
          ---------------------

 POINT   1           X           Y           Z (BOHR)    CHARGE
                 0.000000    0.000000    3.684966        0.00 (A.U.)
         DX          DY          DZ         /D/  (DEBYE)
     0.000000    0.000000    0.000000    0.000000
 ...... END OF PROPERTY EVALUATION ......
 CPU     0: STEP CPU TIME=     0.00 TOTAL CPU TIME=      138.9 (    2.3 MIN)
 TOTAL WALL CLOCK TIME=      180.4 SECONDS, CPU UTILIZATION IS  77.00%
             119866859  WORDS OF DYNAMIC MEMORY USED
 EXECUTION OF GAMESS TERMINATED NORMALLY Thu Jan 17 18:51:26 2019
 DDI: 305760 bytes (0.3 MB / 0 MWords) used by master data server.

 ----------------------------------------
 CPU timing information for all processes
 ========================================
 0: 129.432 + 9.680 = 139.112
 1: 129.444 + 11.872 = 141.316
 2: 132.312 + 9.636 = 141.948
 3: 130.280 + 11.604 = 141.884
 4: 133.268 + 11.280 = 144.548
 5: 131.72 + 11.612 = 142.684
 6: 130.888 + 10.304 = 141.192
 7: 132.116 + 8.912 = 141.28
 8: 132.48 + 9.580 = 141.628
 9: 130.876 + 10.232 = 141.108
 10: 132.04 + 9.612 = 141.616
 11: 132.544 + 7.820 = 140.364
 12: 0.524 + 5.352 = 5.876
 13: 0.04 + 0.04 = 0.08
 14: 0.08 + 0.00 = 0.08
 15: 0.00 + 0.08 = 0.08
 16: 0.00 + 0.08 = 0.08
 17: 0.00 + 0.04 = 0.04
 18: 0.00 + 0.08 = 0.08
 19: 0.00 + 0.04 = 0.04
 20: 0.08 + 0.00 = 0.08
 21: 0.04 + 0.00 = 0.04
 22: 0.04 + 0.00 = 0.04
 23: 0.04 + 0.00 = 0.04
 ----------------------------------------
 ddikick.x: exited gracefully.
unset echo
----- accounting info -----
Files used on the master node localhost were:
-rw-rw-r-- 1 maho maho    13429 Jan 17 18:51 ./N2.SV/3.9/N2.SV.fullCI.3.9.gamess.dat
-rw------- 1 maho maho     1813 Jan 17 18:48 ./N2.SV/3.9/N2.SV.fullCI.3.9.gamess.F05
-rw-rw-r-- 1 maho maho   180016 Jan 17 18:48 ./N2.SV/3.9/N2.SV.fullCI.3.9.gamess.F08
-rw-rw-r-- 1 maho maho     1376 Jan 17 18:48 ./N2.SV/3.9/N2.SV.fullCI.3.9.gamess.F09
-rw-rw-r-- 1 maho maho  1865040 Jan 17 18:51 ./N2.SV/3.9/N2.SV.fullCI.3.9.gamess.F10
-rw-rw-r-- 1 maho maho 38216480 Jan 17 18:51 ./N2.SV/3.9/N2.SV.fullCI.3.9.gamess.F12
-rw------- 1 maho maho     1813 Jan 17 18:48 ./N2.SV/3.9/N2.SV.fullCI.3.9.gamess.inp
-rw-rw-r-- 1 maho maho    49442 Jan 17 18:51 ./N2.SV/3.9/N2.SV.fullCI.3.9.gamess.log
ls: No match.
ls: No match.
ls: No match.
Thu Jan 17 18:51:29 JST 2019
0.0u 0.0s 3:03.93 0.0% 0+0k 0+8io 0pf+0w
