----- GAMESS execution script 'rungms' -----
This job is running on host bach.ad64.riken.go.jp
under operating system Darwin at 2019年 1月17日 木曜日 17時44分39秒 JST
Available scratch disk space (Kbyte units) at beginning of the job is
Filesystem   1024-blocks       Used Available Capacity iused      ifree %iused  Mounted on
/dev/disk2s2  1953178672 1144739884 808438788    59%  984085 4293983194    0%   /Volumes/Users
GAMESS temporary binary files will be written to ./
GAMESS supplementary output files will be written to ./
Copying input file LiH.631g/1.1/LiH.631g.fullCI.1.1.gamess.inp to your run's scratch directory...
cp LiH.631g/1.1/LiH.631g.fullCI.1.1.gamess.inp .//LiH.631g/1.1/LiH.631g.fullCI.1.1.gamess.F05
unset echo
/Volumes/Users/maho/bin/gamess//ddikick.x /Volumes/Users/maho/bin/gamess//gamess.00.x LiH.631g/1.1/LiH.631g.fullCI.1.1.gamess -ddi 1 1 bach.ad64.riken.go.jp -scr ./

 Distributed Data Interface kickoff program.
 Initiating 1 compute processes on 1 nodes to run the following command:
 /Volumes/Users/maho/bin/gamess//gamess.00.x LiH.631g/1.1/LiH.631g.fullCI.1.1.gamess 

          ******************************************************
          *         GAMESS VERSION = 18 AUG 2016 (R1)          *
          *             FROM IOWA STATE UNIVERSITY             *
          * M.W.SCHMIDT, K.K.BALDRIDGE, J.A.BOATZ, S.T.ELBERT, *
          *   M.S.GORDON, J.H.JENSEN, S.KOSEKI, N.MATSUNAGA,   *
          *          K.A.NGUYEN, S.J.SU, T.L.WINDUS,           *
          *       TOGETHER WITH M.DUPUIS, J.A.MONTGOMERY       *
          *         J.COMPUT.CHEM.  14, 1347-1363(1993)        *
          **************** 64 BIT APPLE VERSION ****************

  SINCE 1993, STUDENTS AND POSTDOCS WORKING AT IOWA STATE UNIVERSITY
  AND ALSO IN THEIR VARIOUS JOBS AFTER LEAVING ISU HAVE MADE IMPORTANT
  CONTRIBUTIONS TO THE CODE:
     IVANA ADAMOVIC, CHRISTINE AIKENS, YURI ALEXEEV, POOJA ARORA,
     ANDREY ASADCHEV, ROB BELL, PRADIPTA BANDYOPADHYAY, JONATHAN BENTZ,
     BRETT BODE, KURT BRORSEN, CALEB CARLIN, GALINA CHABAN, WEI CHEN,
     CHEOL HO CHOI, PAUL DAY, ALBERT DEFUSCO, NUWAN DESILVA, TIM DUDLEY,
     DMITRI FEDOROV, GRAHAM FLETCHER, MARK FREITAG, KURT GLAESEMANN,
     DAN KEMP, GRANT MERRILL, NORIYUKI MINEZAWA, JONATHAN MULLIN,
     TAKESHI NAGATA, SEAN NEDD, HEATHER NETZLOFF, BOSILJKA NJEGIC, RYAN OLSON,
     MIKE PAK, SPENCER PRUITT, LUKE ROSKOP, JIM SHOEMAKER, LYUDMILA SLIPCHENKO,
     TONY SMITH, SAROM SOK LEANG, JIE SONG, TETSUYA TAKETSUGU, SIMON WEBB,
     PENG XU, SOOHAENG YOO, FEDERICO ZAHARIEV

  ADDITIONAL CODE HAS BEEN PROVIDED BY COLLABORATORS IN OTHER GROUPS:
     IOWA STATE UNIVERSITY:
          JOE IVANIC, AARON WEST, LAIMUTIS BYTAUTAS, KLAUS RUEDENBERG
     UNIVERSITY OF TOKYO: KIMIHIKO HIRAO, TAKAHITO NAKAJIMA,
          TAKAO TSUNEDA, MUNEAKI KAMIYA, SUSUMU YANAGISAWA,
          KIYOSHI YAGI, MAHITO CHIBA, SEIKEN TOKURA, NAOAKI KAWAKAMI
     UNIVERSITY OF AARHUS: FRANK JENSEN
     UNIVERSITY OF IOWA: VISVALDAS KAIRYS, HUI LI
     NATIONAL INST. OF STANDARDS AND TECHNOLOGY: WALT STEVENS, DAVID GARMER
     UNIVERSITY OF PISA: BENEDETTA MENNUCCI, JACOPO TOMASI
     UNIVERSITY OF MEMPHIS: HENRY KURTZ, PRAKASHAN KORAMBATH
     UNIVERSITY OF ALBERTA: TOBY ZENG, MARIUSZ KLOBUKOWSKI
     UNIVERSITY OF NEW ENGLAND: MARK SPACKMAN
     MIE UNIVERSITY: HIROAKI UMEDA
     NAT. INST. OF ADVANCED INDUSTRIAL SCIENCE AND TECHNOLOGY: KAZUO KITAURA
     MICHIGAN STATE UNIVERSITY:
          KAROL KOWALSKI, MARTA WLOCH, JEFFREY GOUR, JESSE LUTZ,
          WEI LI, PIOTR PIECUCH
     UNIVERSITY OF SILESIA: MONIKA MUSIAL, STANISLAW KUCHARSKI
     FACULTES UNIVERSITAIRES NOTRE-DAME DE LA PAIX:
          OLIVIER QUINET, BENOIT CHAMPAGNE
     UNIVERSITY OF CALIFORNIA - SANTA BARBARA: BERNARD KIRTMAN
     INSTITUTE FOR MOLECULAR SCIENCE:
          KAZUYA ISHIMURA, MICHIO KATOUDA, AND SHIGERU NAGASE
     UNIVERSITY OF NOTRE DAME: ANNA POMOGAEVA, DAN CHIPMAN
     KYUSHU UNIVERSITY:
          HARUYUKI NAKANO,
          FENG LONG GU, JACEK KORCHOWIEC, MARCIN MAKOWSKI, AND YURIKO AOKI,
          HIROTOSHI MORI AND EISAKU MIYOSHI
     PENNSYLVANIA STATE UNIVERSITY:
          TZVETELIN IORDANOV, CHET SWALINA, JONATHAN SKONE,
          SHARON HAMMES-SCHIFFER
     WASEDA UNIVERSITY:
          MASATO KOBAYASHI, TOMOKO AKAMA, TSUGUKI TOUMA,
          TAKESHI YOSHIKAWA, YASUHIRO IKABATA, JUNJI SEINO,
          YUYA NAKAJIMA, HIROMI NAKAI
     NANJING UNIVERSITY: SHUHUA LI
     UNIVERSITY OF NEBRASKA:
          PEIFENG SU, DEJUN SI, NANDUN THELLAMUREGE, YALI WANG, HUI LI
     UNIVERSITY OF ZURICH: ROBERTO PEVERATI, KIM BALDRIDGE
     N. COPERNICUS UNIVERSITY AND JACKSON STATE UNIVERSITY:
          MARIA BARYSZ
     UNIVERSITY OF COPENHAGEN: Jimmy Kromann, CASPER STEINMANN
     TOKYO INSTITUTE OF TECHNOLOGY: HIROYA NAKATA
     NAGOYA UNIVERSITY: YOSHIO NISHIMOTO, STEPHAN IRLE
     MOSCOW STATE UNIVERSITY: VLADIMIR MIRONOV

 EXECUTION OF GAMESS BEGUN Thu Jan 17 17:44:39 2019

            ECHO OF THE FIRST FEW INPUT CARDS -
 INPUT CARD> $CONTRL SCFTYP=RHF CITYP=ALDET $END                                            
 INPUT CARD> $GUESS  GUESS=HUCKEL $END                                                      
 INPUT CARD> $BASIS GBASIS=N31 NGAUSS=6 NDFUNC=1 NPFUNC=1 $END                              
 INPUT CARD> $CIDET SZ=0 GROUP=C2V NCORE=0 NACT=20 NELS=4 $END                              
 INPUT CARD> $DATA                                                                          
 INPUT CARD>LiH...HF...6-31G* basis                                                         
 INPUT CARD>Cnv   2                                                                         
 INPUT CARD>                                                                                
 INPUT CARD>Li    3.0    0.0      0.0     0.0                                               
 INPUT CARD>H     1.0    0.0      0.0     1.1                                               
 INPUT CARD> $END                                                                           
    1000000 WORDS OF MEMORY AVAILABLE

     BASIS OPTIONS
     -------------
     GBASIS=N31          IGAUSS=       6      POLAR=POPN31  
     NDFUNC=       1     NFFUNC=       0     DIFFSP=       F
     NPFUNC=       1      DIFFS=       F     BASNAM=        


     RUN TITLE
     ---------
 LiH...HF...6-31G* basis                                                         

 THE POINT GROUP OF THE MOLECULE IS CNV     
 THE ORDER OF THE PRINCIPAL AXIS IS     2

 ATOM      ATOMIC                      COORDINATES (BOHR)
           CHARGE         X                   Y                   Z
 LI          3.0     0.0000000000        0.0000000000        0.0000000000
 H           1.0     0.0000000000        0.0000000000        2.0786985865

          INTERNUCLEAR DISTANCES (ANGS.)
          ------------------------------

                1 LI         2 H     

   1 LI      0.0000000    1.1000000 *
   2 H       1.1000000 *  0.0000000  

  * ... LESS THAN  3.000


     ATOMIC BASIS SET
     ----------------
 THE CONTRACTED PRIMITIVE FUNCTIONS HAVE BEEN UNNORMALIZED
 THE CONTRACTED BASIS FUNCTIONS ARE NOW NORMALIZED TO UNITY

  SHELL TYPE  PRIMITIVE        EXPONENT          CONTRACTION COEFFICIENT(S)

 LI        

      1   S       1           642.4189150    0.002142607810
      1   S       2            96.7985153    0.016208871501
      1   S       3            22.0911212    0.077315572504
      1   S       4             6.2010702    0.245786052013
      1   S       5             1.9351177    0.470189004025
      1   S       6             0.6367358    0.345470845019

      2   L       7             2.3249184   -0.035091745735    0.008941508043
      2   L       8             0.6324304   -0.191232843103    0.141009464046
      2   L       9             0.0790534    1.083987794916    0.945363695309

      3   L      10             0.0359620    1.000000000000    1.000000000000

      4   D      11             0.2000000    1.000000000000

 H         

      5   S      12            18.7311370    0.033494604338
      5   S      13             2.8253944    0.234726953484
      5   S      14             0.6401217    0.813757326146

      6   S      15             0.1612778    1.000000000000

      7   P      16             1.1000000    1.000000000000

 TOTAL NUMBER OF BASIS SET SHELLS             =    7
 NUMBER OF CARTESIAN GAUSSIAN BASIS FUNCTIONS =   20
 NUMBER OF ELECTRONS                          =    4
 CHARGE OF MOLECULE                           =    0
 SPIN MULTIPLICITY                            =    1
 NUMBER OF OCCUPIED ORBITALS (ALPHA)          =    2
 NUMBER OF OCCUPIED ORBITALS (BETA )          =    2
 TOTAL NUMBER OF ATOMS                        =    2
 THE NUCLEAR REPULSION ENERGY IS        1.4432106797

 THIS MOLECULE IS RECOGNIZED AS BEING LINEAR,
 ORBITAL LZ DEGENERACY TOLERANCE ETOLLZ= 1.00E-06

     $CONTRL OPTIONS
     ---------------
 SCFTYP=RHF          RUNTYP=ENERGY       EXETYP=RUN     
 MPLEVL=       0     CITYP =ALDET        CCTYP =NONE         VBTYP =NONE    
 DFTTYP=NONE         TDDFT =NONE    
 MULT  =       1     ICHARG=       0     NZVAR =       0     COORD =UNIQUE  
 PP    =NONE         RELWFN=NONE         LOCAL =NONE         NUMGRD=       F
 ISPHER=      -1     NOSYM =       0     MAXIT =      30     UNITS =ANGS    
 PLTORB=       F     MOLPLT=       F     AIMPAC=       F     FRIEND=        
 NPRINT=       7     IREST =       0     GEOM  =INPUT   
 NORMF =       0     NORMP =       0     ITOL  =      20     ICUT  =       9
 INTTYP=BEST         GRDTYP=BEST         QMTTOL= 1.0E-06

     $SYSTEM OPTIONS
     ---------------
  REPLICATED MEMORY=     1000000 WORDS (ON EVERY NODE).
 DISTRIBUTED MEMDDI=           0 MILLION WORDS IN AGGREGATE,
 MEMDDI DISTRIBUTED OVER   1 PROCESSORS IS           0 WORDS/PROCESSOR.
 TOTAL MEMORY REQUESTED ON EACH PROCESSOR=     1000000 WORDS.
 TIMLIM=      525600.00 MINUTES, OR     365.0 DAYS.
 PARALL= F  BALTYP=  DLB     KDIAG=    0  COREFL= F
 MXSEQ2=     300 MXSEQ3=     150  mem10=         0

          ----------------
          PROPERTIES INPUT
          ----------------

     MOMENTS            FIELD           POTENTIAL          DENSITY
 IEMOM =       1   IEFLD =       0   IEPOT =       0   IEDEN =       0
 WHERE =COMASS     WHERE =NUCLEI     WHERE =NUCLEI     WHERE =NUCLEI  
 OUTPUT=BOTH       OUTPUT=BOTH       OUTPUT=BOTH       OUTPUT=BOTH    
 IEMINT=       0   IEFINT=       0                     IEDINT=       0
                                                       MORB  =       0
          EXTRAPOLATION IN EFFECT
          SOSCF IN EFFECT
 ORBITAL PRINTING OPTION: NPREO=     1    20     2     1

     -------------------------------
     INTEGRAL TRANSFORMATION OPTIONS
     -------------------------------
     NWORD  =            0
     CUTOFF = 1.0E-09     MPTRAN =       0
     DIRTRF =       F     AOINTS =DUP     

          ----------------------
          INTEGRAL INPUT OPTIONS
          ----------------------
 NOPK  =       1 NORDER=       0 SCHWRZ=       F

     ------------------------------------------
     THE POINT GROUP IS CNV, NAXIS= 2, ORDER= 4
     ------------------------------------------

     DIMENSIONS OF THE SYMMETRY SUBSPACES ARE
 A1  =   11     A2  =    1     B1  =    4     B2  =    4

 ..... DONE SETTING UP THE RUN .....
 STEP CPU TIME =     0.00 TOTAL CPU TIME =        0.0 (    0.0 MIN)
 TOTAL WALL CLOCK TIME=        0.0 SECONDS, CPU UTILIZATION IS   0.00%

          ********************
          1 ELECTRON INTEGRALS
          ********************
 ...... END OF ONE-ELECTRON INTEGRALS ......
 STEP CPU TIME =     0.00 TOTAL CPU TIME =        0.0 (    0.0 MIN)
 TOTAL WALL CLOCK TIME=        0.0 SECONDS, CPU UTILIZATION IS   0.00%

          -------------
          GUESS OPTIONS
          -------------
          GUESS =HUCKEL            NORB  =       0          NORDER=       0
          MIX   =       F          PRTMO =       F          PUNMO =       F
          TOLZ  = 1.0E-08          TOLE  = 1.0E-05
          SYMDEN=       F          PURIFY=       F

 INITIAL GUESS ORBITALS GENERATED BY HUCKEL   ROUTINE.
 HUCKEL GUESS REQUIRES      4469 WORDS.

 SYMMETRIES FOR INITIAL GUESS ORBITALS FOLLOW.   BOTH SET(S).
     2 ORBITALS ARE OCCUPIED (    1 CORE ORBITALS).
     2=A1       3=A1       4=A1       5=A1       6=A1       7=A1       8=A1  
     9=A1      10=A1      11=A1      12=A2  
 ...... END OF INITIAL ORBITAL SELECTION ......
 STEP CPU TIME =     0.00 TOTAL CPU TIME =        0.0 (    0.0 MIN)
 TOTAL WALL CLOCK TIME=        0.0 SECONDS, CPU UTILIZATION IS   0.00%

                    ----------------------
                    AO INTEGRAL TECHNOLOGY
                    ----------------------
     S,P,L SHELL ROTATED AXIS INTEGRALS, REPROGRAMMED BY
        KAZUYA ISHIMURA (IMS) AND JOSE SIERRA (SYNSTAR).
     S,P,D,L SHELL ROTATED AXIS INTEGRALS PROGRAMMED BY
        KAZUYA ISHIMURA (INSTITUTE FOR MOLECULAR SCIENCE).
     S,P,D,F,G SHELL TO TOTAL QUARTET ANGULAR MOMENTUM SUM 5,
        ERIC PROGRAM BY GRAHAM FLETCHER (ELORET AND NASA ADVANCED
        SUPERCOMPUTING DIVISION, AMES RESEARCH CENTER).
     S,P,D,F,G,L SHELL GENERAL RYS QUADRATURE PROGRAMMED BY
        MICHEL DUPUIS (PACIFIC NORTHWEST NATIONAL LABORATORY).

          --------------------
          2 ELECTRON INTEGRALS
          --------------------

 THE -PK- OPTION IS OFF, THE INTEGRALS ARE NOT IN SUPERMATRIX FORM.
 STORING   15000 INTEGRALS/RECORD ON DISK, USING 12 BYTES/INTEGRAL.
 TWO ELECTRON INTEGRAL EVALUATION REQUIRES   90424 WORDS OF MEMORY.
 II,JST,KST,LST =  1  1  1  1 NREC =         1 INTLOC =    1
 II,JST,KST,LST =  2  1  1  1 NREC =         1 INTLOC =    2
 II,JST,KST,LST =  3  1  1  1 NREC =         1 INTLOC =   34
 II,JST,KST,LST =  4  1  1  1 NREC =         1 INTLOC =  214
 II,JST,KST,LST =  5  1  1  1 NREC =         1 INTLOC = 1189
 II,JST,KST,LST =  6  1  1  1 NREC =         1 INTLOC = 1867
 II,JST,KST,LST =  7  1  1  1 NREC =         1 INTLOC = 2713
 TOTAL NUMBER OF NONZERO TWO-ELECTRON INTEGRALS =                5596
          1 INTEGRAL RECORDS WERE STORED ON DISK FILE  8.
  ...... END OF TWO-ELECTRON INTEGRALS .....
 STEP CPU TIME =     0.03 TOTAL CPU TIME =        0.0 (    0.0 MIN)
 TOTAL WALL CLOCK TIME=        0.0 SECONDS, CPU UTILIZATION IS 100.00%

          --------------------------
                 RHF SCF CALCULATION
          --------------------------

     NUCLEAR ENERGY =         1.4432106797
     MAXIT =   30     NPUNCH=    2
     EXTRAP=T  DAMP=F  SHIFT=F  RSTRCT=F  DIIS=F  DEM=F  SOSCF=T
     DENSITY MATRIX CONV=  1.00E-06
     SOSCF WILL OPTIMIZE      36 ORBITAL ROTATIONS, SOGTOL=   0.250
     MEMORY REQUIRED FOR RHF ITERS=     33224 WORDS.

 ITER EX DEM     TOTAL ENERGY        E CHANGE  DENSITY CHANGE     ORB. GRAD
   1  0  0       -7.8505840564    -7.8505840564   0.217785243   0.000000000
          ---------------START SECOND ORDER SCF---------------
   2  1  0       -7.9084839257    -0.0578998693   0.089150553   0.019311445
   3  2  0       -7.9141431485    -0.0056592228   0.072994027   0.008968917
   4  3  0       -7.9155870299    -0.0014438813   0.007320257   0.001268009
   5  4  0       -7.9156082681    -0.0000212382   0.001711001   0.000189777
   6  5  0       -7.9156086929    -0.0000004248   0.000182881   0.000019268
   7  6  0       -7.9156086991    -0.0000000063   0.000032958   0.000004923
   8  7  0       -7.9156086995    -0.0000000003   0.000003512   0.000000842
   9  8  0       -7.9156086995    -0.0000000000   0.000000546   0.000000116
  10  9  0       -7.9156086995    -0.0000000000   0.000000000   0.000000006

          -----------------
          DENSITY CONVERGED
          -----------------
     TIME TO FORM FOCK OPERATORS=       0.0 SECONDS (       0.0 SEC/ITER)
     TIME TO SOLVE SCF EQUATIONS=       0.0 SECONDS (       0.0 SEC/ITER)

 FINAL RHF ENERGY IS       -7.9156086995 AFTER  10 ITERATIONS

 LZ VALUE ANALYSIS FOR THE MOS
 ----------------------------------------
 MO     1 (    1) HAS LZ(WEIGHT)= 0.00(100.0%) 
 MO     2 (    2) HAS LZ(WEIGHT)= 0.00(100.0%) 
 MO     3 (    3) HAS LZ(WEIGHT)= 0.00(100.0%) 
 MO     4 (    4) HAS LZ(WEIGHT)=-1.00( 50.0%)  1.00( 50.0%) 
 MO     5 (    4) HAS LZ(WEIGHT)=-1.00( 50.0%)  1.00( 50.0%) 
 MO     6 (    5) HAS LZ(WEIGHT)= 0.00(100.0%) 
 MO     7 (    6) HAS LZ(WEIGHT)= 0.00(100.0%) 
 MO     8 (    7) HAS LZ(WEIGHT)=-1.00( 50.0%)  1.00( 50.0%) 
 MO     9 (    7) HAS LZ(WEIGHT)=-1.00( 50.0%)  1.00( 50.0%) 
 MO    10 (    8) HAS LZ(WEIGHT)= 0.00(100.0%) 
 MO    11 (    9) HAS LZ(WEIGHT)=-1.00( 50.0%)  1.00( 50.0%) 
 MO    12 (    9) HAS LZ(WEIGHT)=-1.00( 50.0%)  1.00( 50.0%) 
 MO    13 (   10) HAS LZ(WEIGHT)=-2.00( 50.0%)  2.00( 50.0%) 
 MO    14 (   10) HAS LZ(WEIGHT)=-2.00( 50.0%)  2.00( 50.0%) 
 MO    15 (   11) HAS LZ(WEIGHT)= 0.00(100.0%) 
 MO    16 (   12) HAS LZ(WEIGHT)= 0.00(100.0%) 
 MO    17 (   13) HAS LZ(WEIGHT)= 0.00(100.0%) 
 MO    18 (   14) HAS LZ(WEIGHT)= 0.00(100.0%) 
 MO    19 (   15) HAS LZ(WEIGHT)=-1.00( 50.0%)  1.00( 50.0%) 
 MO    20 (   15) HAS LZ(WEIGHT)=-1.00( 50.0%)  1.00( 50.0%) 

          ------------
          EIGENVECTORS
          ------------

                      1          2          3          4          5
                   -2.4336    -0.3206     0.0159     0.0645     0.0645
                     A1         A1         A1         B1         B2  
    1  LI 1  S    0.994646  -0.201164  -0.103737  -0.000000  -0.000000
    2  LI 1  S   -0.011327   0.254755  -0.342644  -0.000000  -0.000000
    3  LI 1  X    0.000000  -0.000000   0.000000  -0.011122  -0.000000
    4  LI 1  Y    0.000000  -0.000000   0.000000  -0.000000  -0.011122
    5  LI 1  Z   -0.013635   0.371726  -0.089278  -0.000000  -0.000000
    6  LI 1  S    0.000988   0.102690   1.032354  -0.000000  -0.000000
    7  LI 1  X    0.000000  -0.000000   0.000000   1.008025  -0.000000
    8  LI 1  Y    0.000000  -0.000000   0.000000  -0.000000   1.008025
    9  LI 1  Z    0.006563  -0.093751  -0.512834  -0.000000  -0.000000
   10  LI 1 XX    0.007496  -0.003217   0.043370  -0.000000  -0.000000
   11  LI 1 YY    0.007496  -0.003217   0.043370  -0.000000  -0.000000
   12  LI 1 ZZ    0.004342   0.051462   0.110346  -0.000000  -0.000000
   13  LI 1 XY    0.000000  -0.000000   0.000000  -0.000000  -0.000000
   14  LI 1 XZ    0.000000  -0.000000   0.000000  -0.026209  -0.000000
   15  LI 1 YZ    0.000000  -0.000000   0.000000  -0.000000  -0.026209
   16  H  2  S    0.012424   0.343938  -0.068810  -0.000000  -0.000000
   17  H  2  S    0.010593   0.301778  -0.196222  -0.000000  -0.000000
   18  H  2  X    0.000000  -0.000000   0.000000   0.009273  -0.000000
   19  H  2  Y    0.000000  -0.000000   0.000000  -0.000000   0.009273
   20  H  2  Z   -0.002281  -0.016247   0.007263  -0.000000  -0.000000

                      6          7          8          9         10
                    0.1329     0.1991     0.2263     0.2263     0.4592
                     A1         A1         B2         B1         A1  
    1  LI 1  S   -0.021628   0.001378   0.000000   0.000000   0.189241
    2  LI 1  S   -0.659998   2.437918   0.000000   0.000000   2.251594
    3  LI 1  X   -0.000000  -0.000000   0.000000   1.668953   0.000000
    4  LI 1  Y   -0.000000  -0.000000   1.668953   0.000000   0.000000
    5  LI 1  Z   -0.679951  -1.067799   0.000000   0.000000   1.208989
    6  LI 1  S    1.003597  -1.970036   0.000000   0.000000  -0.953947
    7  LI 1  X   -0.000000  -0.000000   0.000000  -1.335435   0.000000
    8  LI 1  Y   -0.000000  -0.000000  -1.335435   0.000000   0.000000
    9  LI 1  Z    1.313277   0.686555   0.000000   0.000000  -0.535141
   10  LI 1 XX    0.108824  -0.231577   0.000000   0.000000   0.051736
   11  LI 1 YY    0.108824  -0.231577   0.000000   0.000000   0.051736
   12  LI 1 ZZ    0.086919  -0.207250   0.000000   0.000000  -0.835352
   13  LI 1 XY   -0.000000  -0.000000   0.000000   0.000000   0.000000
   14  LI 1 XZ   -0.000000  -0.000000   0.000000  -0.051462   0.000000
   15  LI 1 YZ   -0.000000  -0.000000  -0.051462   0.000000   0.000000
   16  H  2  S   -0.093366  -0.029690   0.000000   0.000000  -0.115465
   17  H  2  S   -0.331351   0.267234   0.000000   0.000000  -0.933345
   18  H  2  X   -0.000000  -0.000000   0.000000   0.012926   0.000000
   19  H  2  Y   -0.000000  -0.000000   0.012926   0.000000   0.000000
   20  H  2  Z   -0.003788  -0.013914   0.000000   0.000000   0.018036

                     11         12         13         14         15
                    0.5725     0.5725     0.5913     0.5913     0.9753
                     B2         B1         A2         A1         A1  
    1  LI 1  S    0.000000   0.000000   0.000000   0.000000   0.685100
    2  LI 1  S    0.000000   0.000000   0.000000   0.000000   8.062355
    3  LI 1  X    0.000000   0.081797   0.000000   0.000000   0.000000
    4  LI 1  Y    0.081797   0.000000   0.000000   0.000000   0.000000
    5  LI 1  Z    0.000000   0.000000   0.000000   0.000000   2.801334
    6  LI 1  S    0.000000   0.000000   0.000000   0.000000  -2.575336
    7  LI 1  X    0.000000  -0.041526   0.000000   0.000000   0.000000
    8  LI 1  Y   -0.041526   0.000000   0.000000   0.000000   0.000000
    9  LI 1  Z    0.000000   0.000000   0.000000   0.000000  -0.929439
   10  LI 1 XX    0.000000   0.000000   0.000000   0.866025  -2.254135
   11  LI 1 YY    0.000000   0.000000   0.000000  -0.866025  -2.254135
   12  LI 1 ZZ    0.000000   0.000000   0.000000   0.000000  -0.283308
   13  LI 1 XY    0.000000   0.000000   1.000000   0.000000   0.000000
   14  LI 1 XZ    0.000000   1.002172   0.000000   0.000000   0.000000
   15  LI 1 YZ    1.002172   0.000000   0.000000   0.000000   0.000000
   16  H  2  S    0.000000   0.000000   0.000000   0.000000  -0.409584
   17  H  2  S    0.000000   0.000000   0.000000   0.000000  -3.135806
   18  H  2  X    0.000000  -0.010772   0.000000   0.000000   0.000000
   19  H  2  Y   -0.010772   0.000000   0.000000   0.000000   0.000000
   20  H  2  Z    0.000000   0.000000   0.000000   0.000000   0.117728

                     16         17         18         19         20
                    1.2622     1.3594     2.5215     2.6738     2.6738
                     A1         A1         A1         B2         B1  
    1  LI 1  S   -0.207494  -0.348109   0.336318  -0.000000  -0.000000
    2  LI 1  S    6.565636  -1.387339   1.928423  -0.000000  -0.000000
    3  LI 1  X   -0.000000   0.000000  -0.000000  -0.000000  -0.304991
    4  LI 1  Y   -0.000000   0.000000  -0.000000  -0.304991  -0.000000
    5  LI 1  Z   -1.468259  -0.942906   0.629806  -0.000000  -0.000000
    6  LI 1  S   -1.985511   0.207030  -0.610054  -0.000000  -0.000000
    7  LI 1  X   -0.000000   0.000000  -0.000000  -0.000000   0.168868
    8  LI 1  Y   -0.000000   0.000000  -0.000000   0.168868  -0.000000
    9  LI 1  Z    0.499728  -0.011802  -0.227028  -0.000000  -0.000000
   10  LI 1 XX   -2.417487  -0.022626  -0.374922  -0.000000  -0.000000
   11  LI 1 YY   -2.417487  -0.022626  -0.374922  -0.000000  -0.000000
   12  LI 1 ZZ   -3.413453  -0.197200  -0.364556  -0.000000  -0.000000
   13  LI 1 XY   -0.000000   0.000000  -0.000000  -0.000000  -0.000000
   14  LI 1 XZ   -0.000000   0.000000  -0.000000  -0.000000  -0.350608
   15  LI 1 YZ   -0.000000   0.000000  -0.000000  -0.350608  -0.000000
   16  H  2  S    0.287153  -1.329811   0.296138  -0.000000  -0.000000
   17  H  2  S    1.580787   2.759364  -0.980998  -0.000000  -0.000000
   18  H  2  X   -0.000000   0.000000  -0.000000  -0.000000   1.078854
   19  H  2  Y   -0.000000   0.000000  -0.000000   1.078854  -0.000000
   20  H  2  Z    0.049265   0.140153   1.047991  -0.000000  -0.000000
 ...... END OF RHF CALCULATION ......
 STEP CPU TIME =     0.00 TOTAL CPU TIME =        0.0 (    0.0 MIN)
 TOTAL WALL CLOCK TIME=        0.0 SECONDS, CPU UTILIZATION IS  75.00%

     ----------------------------------------------------------------
     PROPERTY VALUES FOR THE RHF   SELF-CONSISTENT FIELD WAVEFUNCTION
     ----------------------------------------------------------------

          -----------------
          ENERGY COMPONENTS
          -----------------

         WAVEFUNCTION NORMALIZATION =       1.0000000000

                ONE ELECTRON ENERGY =     -13.2092191937
                TWO ELECTRON ENERGY =       3.8503998144
           NUCLEAR REPULSION ENERGY =       1.4432106797
                                      ------------------
                       TOTAL ENERGY =      -7.9156086995

 ELECTRON-ELECTRON POTENTIAL ENERGY =       3.8503998144
  NUCLEUS-ELECTRON POTENTIAL ENERGY =     -21.5213937154
   NUCLEUS-NUCLEUS POTENTIAL ENERGY =       1.4432106797
                                      ------------------
             TOTAL POTENTIAL ENERGY =     -16.2277832212
               TOTAL KINETIC ENERGY =       8.3121745217
                 VIRIAL RATIO (V/T) =       1.9522909654

  ...... PI ENERGY ANALYSIS ......

 ENERGY ANALYSIS:
            FOCK ENERGY=     -5.5084195678
          BARE H ENERGY=    -13.2092191937
     ELECTRONIC ENERGY =     -9.3588193807
         KINETIC ENERGY=      8.3121745217
          N-N REPULSION=      1.4432106797
           TOTAL ENERGY=     -7.9156087010
        SIGMA PART(1+2)=     -9.3588193807
               (K,V1,2)=      8.3121745217    -21.5213937154      3.8503998129
           PI PART(1+2)=      0.0000000000
               (K,V1,2)=      0.0000000000      0.0000000000      0.0000000000
  SIGMA SKELETON, ERROR=     -7.9156087010      0.0000000000
             MIXED PART= 0.00000E+00 0.00000E+00 0.00000E+00 0.00000E+00
 ...... END OF PI ENERGY ANALYSIS ......

          ---------------------------------------
          MULLIKEN AND LOWDIN POPULATION ANALYSES
          ---------------------------------------

               ----- POPULATIONS IN EACH AO -----
                             MULLIKEN      LOWDIN
              1  LI 1  S      1.99525     1.95609
              2  LI 1  S      0.33774     0.18465
              3  LI 1  X      0.00000     0.00000
              4  LI 1  Y      0.00000     0.00000
              5  LI 1  Z      0.44792     0.33477
              6  LI 1  S      0.12029     0.15007
              7  LI 1  X      0.00000     0.00000
              8  LI 1  Y      0.00000     0.00000
              9  LI 1  Z     -0.07124     0.03581
             10  LI 1 XX     -0.00095     0.04854
             11  LI 1 YY     -0.00095     0.04854
             12  LI 1 ZZ      0.07016     0.18134
             13  LI 1 XY      0.00000     0.00000
             14  LI 1 XZ      0.00000     0.00000
             15  LI 1 YZ      0.00000     0.00000
             16  H  2  S      0.53614     0.49019
             17  H  2  S      0.56496     0.55605
             18  H  2  X      0.00000     0.00000
             19  H  2  Y      0.00000     0.00000
             20  H  2  Z      0.00069     0.01394

          ----- MULLIKEN ATOMIC OVERLAP POPULATIONS -----
          (OFF-DIAGONAL ELEMENTS NEED TO BE MULTIPLIED BY 2)

             1           2

    1    2.4898701
    2    0.4083405   0.6934490

          TOTAL MULLIKEN AND LOWDIN ATOMIC POPULATIONS
       ATOM         MULL.POP.    CHARGE          LOW.POP.     CHARGE
    1 LI            2.898211    0.101789         2.939823    0.060177
    2 H             1.101789   -0.101789         1.060177   -0.060177

          ---------------------
          ELECTROSTATIC MOMENTS
          ---------------------

 POINT   1           X           Y           Z (BOHR)    CHARGE
                 0.000000    0.000000    0.261093       -0.00 (A.U.)
         DX          DY          DZ         /D/  (DEBYE)
     0.000000    0.000000   -5.093181    5.093181
 ...... END OF PROPERTY EVALUATION ......
 STEP CPU TIME =     0.01 TOTAL CPU TIME =        0.0 (    0.0 MIN)
 TOTAL WALL CLOCK TIME=        0.0 SECONDS, CPU UTILIZATION IS 100.00%

 DETERMINANT CI OPTIONS   NRNFG   NPFLG
 INTEGRAL TRANSFORMATION    1       0
 DIAGONALIZE HAMILTONIAN    1       0
 FORM 1E- DENSITY MATRIX    1       0
 FORM 2E- DENSITY MATRIX    0       0

     --------------------------------------------------
          AMES LABORATORY DETERMINANTAL FULL CI
     PROGRAM WRITTEN BY JOE IVANIC AND KLAUS RUEDENBERG
     --------------------------------------------------

 THE POINT GROUP                  =   C2V     
 THE STATE SYMMETRY               =   A1      
 NUMBER OF CORE ORBITALS          =    0
 NUMBER OF ACTIVE ORBITALS        =   20
 NUMBER OF ALPHA ELECTRONS        =    2 (   2 ACTIVE)
 NUMBER OF BETA ELECTRONS         =    2 (   2 ACTIVE)
 NUMBER OF OCCUPIED ORBITALS      =   20
 NUMBER OF CI STATES REQUESTED    =    1
 NUMBER OF CI STARTING VECTORS    =    1
 MAX. NO. OF CI EXPANSION VECTORS =   10
 SIZE OF INITIAL CI GUESS MATRIX  =  300
 MAX. NO. OF CI ITERS/STATE       =  100
 CI DIAGONALIZATION CRITERION     = 1.00E-06
 CI PROPERTIES WILL BE FOUND FOR ROOT NUMBER   1
 1E- DENSITY MATRIX OPTIONS ARE 1

 CORRELATION ENERGY ANALYSIS      =    F

 SYMMETRIES FOR THE   0 CORE,  20 ACTIVE ARE

   ACTIVE= A1    A1    A1    B1    B2    A1    A1    B2    B1    A1  
           B2    B1    A2    A1    A1    A1    A1    A1    B2    B1  

     --------------------------------------------
     PARTIAL TWO ELECTRON INTEGRAL TRANSFORMATION
     --------------------------------------------

 NUMBER OF CORE MOLECULAR ORBITALS     =    0
 NUMBER OF OCCUPIED MOLECULAR ORBITALS =   20
 TOTAL NUMBER OF MOLECULAR ORBITALS    =   20
 TOTAL NUMBER OF ATOMIC ORBITALS       =   20
 THRESHOLD FOR KEEPING TRANSFORMED 2E- INTEGRALS = 1.000E-09
 AO INTEGRALS WILL BE READ IN FROM DISK...

 PLAN A: REQUIREMENTS FOR FULLY IN-MEMORY TRANSFORMATION:
 # OF WORDS AVAILABLE =              1000000
 # OF WORDS NEEDED    =               146042

 CHOOSING IN MEMORY PARTIAL TRANSFORMATION...
 TOTAL NUMBER OF TRANSFORMED 2E- INTEGRALS KEPT =         5962
 ... END OF INTEGRAL TRANSFORMATION ...
 STEP CPU TIME =     0.00 TOTAL CPU TIME =        0.0 (    0.0 MIN)
 TOTAL WALL CLOCK TIME=        0.0 SECONDS, CPU UTILIZATION IS  80.00%

     --------------------------------------------------
          AMES LABORATORY DETERMINANTAL FULL CI
     PROGRAM WRITTEN BY JOE IVANIC AND KLAUS RUEDENBERG
     --------------------------------------------------

 THE NUMBER OF DETERMINANTS HAVING SPACE SYMMETRY A1 
 IN POINT GROUP C2V  WITH SZ=  0.0 IS           9826
 THE DETERMINANT FULL CI REQUIRES          451749 WORDS
 INITIAL CI VECTOR GUESS TIME  :          0.0
 INITIAL FULL CI ITERATION TIME:          0.0

 ITERATION      ENERGY           GRADIENT
     0       -7.9423543920     0.17397540
     1       -7.9478125078     0.01519106
     2       -7.9479098061     0.00524143
     3       -7.9479215501     0.00154266
     4       -7.9479235224     0.00071400
     5       -7.9479238115     0.00019956
     6       -7.9479238321     0.00005488
     7       -7.9479238336     0.00001499
     8       -7.9479238338     0.00000368
     9       -7.9479238338     0.00000065

 CONVERGED STATE    1 ENERGY=       -7.9479238338 IN    9 ITERS

 ALL STATES CONVERGED.

 CI EIGENVECTORS WILL BE LABELED IN GROUP=C2V     
 PRINTING CI COEFFICIENTS LARGER THAN 5.000E-02

 STATE   1  ENERGY=        -7.9479238338  S=  0.00  SZ=  0.00  SPACE SYM=A1  

        ALPHA         |        BETA          | CI COEFFICIENT
----------------------|----------------------|---------------
 11000000000000000000 | 11000000000000000000 |   0.9882166835
 ..... DONE WITH DETERMINANT CI COMPUTATION .....
 STEP CPU TIME =     0.26 TOTAL CPU TIME =        0.3 (    0.0 MIN)
 TOTAL WALL CLOCK TIME=        0.4 SECONDS, CPU UTILIZATION IS  78.95%

     ---------------------------
     ONE PARTICLE DENSITY MATRIX
     ---------------------------

 DENSITY MATRIX WILL BE SAVED FOR   1-TH STATE WITH S= 0.00

 CI EIGENSTATE   1 TOTAL ENERGY =       -7.9479238338

          NATURAL ORBITALS IN ATOMIC ORBITAL BASIS
          ----------------------------------------

                      1          2          3          4          5
                    1.9994     1.9554     0.0260     0.0080     0.0080
                     A1         A1         A1         B2         B1  
    1  LI 1  S    1.001067  -0.161780  -0.019254  -0.000000  -0.000000
    2  LI 1  S   -0.019304   0.259322  -0.598657  -0.000000  -0.000000
    3  LI 1  X   -0.000000   0.000000   0.000000  -0.000000   0.868869
    4  LI 1  Y   -0.000000   0.000000   0.000000   0.868869  -0.000000
    5  LI 1  Z   -0.031623   0.365199  -0.415139  -0.000000  -0.000000
    6  LI 1  S   -0.004741   0.119705  -0.357561  -0.000000  -0.000000
    7  LI 1  X   -0.000000   0.000000   0.000000  -0.000000  -0.293244
    8  LI 1  Y   -0.000000   0.000000   0.000000  -0.293244  -0.000000
    9  LI 1  Z    0.011400  -0.089291  -0.055366  -0.000000  -0.000000
   10  LI 1 XX    0.006757   0.000464   0.000128  -0.000000  -0.000000
   11  LI 1 YY    0.006757   0.000464   0.000128  -0.000000  -0.000000
   12  LI 1 ZZ   -0.000087   0.049540   0.057775  -0.000000  -0.000000
   13  LI 1 XY   -0.000000   0.000000   0.000000  -0.000000  -0.000000
   14  LI 1 XZ   -0.000000   0.000000   0.000000  -0.000000   0.534967
   15  LI 1 YZ   -0.000000   0.000000   0.000000   0.534967  -0.000000
   16  H  2  S   -0.001562   0.355616   0.876496  -0.000000  -0.000000
   17  H  2  S    0.003027   0.278221   0.183281  -0.000000  -0.000000
   18  H  2  X   -0.000000   0.000000   0.000000  -0.000000   0.316572
   19  H  2  Y   -0.000000   0.000000   0.000000   0.316572  -0.000000
   20  H  2  Z   -0.002053  -0.016822  -0.041160  -0.000000  -0.000000

                      6          7          8          9         10
                    0.0016     0.0005     0.0003     0.0002     0.0002
                     A1         A1         A1         B2         B1  
    1  LI 1  S   -0.058506  -0.654201   0.050634  -0.000000  -0.000000
    2  LI 1  S    1.690228   0.451222   0.868825  -0.000000  -0.000000
    3  LI 1  X   -0.000000   0.000000   0.000000  -0.000000  -0.750748
    4  LI 1  Y   -0.000000   0.000000   0.000000  -0.750748  -0.000000
    5  LI 1  Z    0.079514  -3.169153  -0.874674  -0.000000  -0.000000
    6  LI 1  S   -0.626845  -0.617160   0.331337  -0.000000  -0.000000
    7  LI 1  X   -0.000000   0.000000   0.000000  -0.000000   0.227853
    8  LI 1  Y   -0.000000   0.000000   0.000000   0.227853  -0.000000
    9  LI 1  Z   -0.153684   0.982237   0.694514  -0.000000  -0.000000
   10  LI 1 XX   -0.122209  -0.655480  -0.082596  -0.000000  -0.000000
   11  LI 1 YY   -0.122209  -0.655480  -0.082596  -0.000000  -0.000000
   12  LI 1 ZZ   -0.677097  -1.849754  -0.758533  -0.000000  -0.000000
   13  LI 1 XY   -0.000000   0.000000   0.000000  -0.000000  -0.000000
   14  LI 1 XZ   -0.000000   0.000000   0.000000  -0.000000  -0.269347
   15  LI 1 YZ   -0.000000   0.000000   0.000000  -0.269347  -0.000000
   16  H  2  S    0.459491  -0.385119   0.956992  -0.000000  -0.000000
   17  H  2  S   -0.611791   3.943782  -0.747971  -0.000000  -0.000000
   18  H  2  X   -0.000000   0.000000   0.000000  -0.000000   0.972154
   19  H  2  Y   -0.000000   0.000000   0.000000   0.972154  -0.000000
   20  H  2  Z   -0.749008  -0.132051   0.455503  -0.000000  -0.000000

                     11         12         13         14         15
                    0.0001     0.0000     0.0000     0.0000     0.0000
                     A1         A1         A2         B1         B2  
    1  LI 1  S   -0.184466   0.000000   0.000000  -0.000000  -0.000000
    2  LI 1  S   -0.923088   0.000000   0.000000  -0.000000  -0.000000
    3  LI 1  X    0.000000   0.000000   0.000000  -1.218848  -0.000000
    4  LI 1  Y    0.000000   0.000000   0.000000  -0.000000  -1.218848
    5  LI 1  Z   -0.762364   0.000000   0.000000  -0.000000  -0.000000
    6  LI 1  S    1.349426   0.000000   0.000000  -0.000000  -0.000000
    7  LI 1  X    0.000000   0.000000   0.000000   1.299420  -0.000000
    8  LI 1  Y    0.000000   0.000000   0.000000  -0.000000   1.299420
    9  LI 1  Z    0.906078   0.000000   0.000000  -0.000000  -0.000000
   10  LI 1 XX   -0.441057  -0.866025   0.000000  -0.000000  -0.000000
   11  LI 1 YY   -0.441057   0.866025   0.000000  -0.000000  -0.000000
   12  LI 1 ZZ   -0.126974   0.000000   0.000000  -0.000000  -0.000000
   13  LI 1 XY    0.000000   0.000000   1.000000  -0.000000  -0.000000
   14  LI 1 XZ    0.000000   0.000000   0.000000   0.610182  -0.000000
   15  LI 1 YZ    0.000000   0.000000   0.000000  -0.000000   0.610182
   16  H  2  S    0.101330   0.000000   0.000000  -0.000000  -0.000000
   17  H  2  S    0.327510   0.000000   0.000000  -0.000000  -0.000000
   18  H  2  X    0.000000   0.000000   0.000000  -0.187678  -0.000000
   19  H  2  Y    0.000000   0.000000   0.000000  -0.000000  -0.187678
   20  H  2  Z   -0.445766   0.000000   0.000000  -0.000000  -0.000000

                     16         17         18         19         20
                    0.0000     0.0000     0.0000     0.0000     0.0000
                     A1         A1         B2         B1         A1  
    1  LI 1  S   -0.063717   0.536793   0.000000   0.000000   0.186164
    2  LI 1  S    2.334856  10.179219   0.000000   0.000000   3.349977
    3  LI 1  X    0.000000   0.000000   0.000000  -0.284767  -0.000000
    4  LI 1  Y    0.000000   0.000000  -0.284767   0.000000  -0.000000
    5  LI 1  Z    0.377723   1.260314   0.000000   0.000000   1.032289
    6  LI 1  S   -0.123123  -3.834349   0.000000   0.000000  -0.547764
    7  LI 1  X    0.000000   0.000000   0.000000   1.001667  -0.000000
    8  LI 1  Y    0.000000   0.000000   1.001667   0.000000  -0.000000
    9  LI 1  Z   -0.753474   0.034186   0.000000   0.000000  -1.023587
   10  LI 1 XX   -1.035057  -2.792040   0.000000   0.000000  -1.274253
   11  LI 1 YY   -1.035057  -2.792040   0.000000   0.000000  -1.274253
   12  LI 1 ZZ   -2.018586  -2.026636   0.000000   0.000000   0.087176
   13  LI 1 XY    0.000000   0.000000   0.000000   0.000000  -0.000000
   14  LI 1 XZ    0.000000   0.000000   0.000000  -0.632100  -0.000000
   15  LI 1 YZ    0.000000   0.000000  -0.632100   0.000000  -0.000000
   16  H  2  S    0.107932   0.047884   0.000000   0.000000  -0.241292
   17  H  2  S    0.724393  -1.916127   0.000000   0.000000  -1.090375
   18  H  2  X    0.000000   0.000000   0.000000   0.289432  -0.000000
   19  H  2  Y    0.000000   0.000000   0.289432   0.000000  -0.000000
   20  H  2  Z    0.265158   0.272907   0.000000   0.000000   0.060504
 ..... DONE WITH ONE PARTICLE DENSITY MATRIX .....
 STEP CPU TIME =     0.00 TOTAL CPU TIME =        0.3 (    0.0 MIN)
 TOTAL WALL CLOCK TIME=        0.4 SECONDS, CPU UTILIZATION IS  78.95%

     --------------------------------------------------------
     ALDET CI PROPERTIES...FOR THE WAVEFUNCTION OF STATE    1
               USING THE EXPECTATION VALUE DENSITY
     --------------------------------------------------------

          -----------------
          ENERGY COMPONENTS
          -----------------

         WAVEFUNCTION NORMALIZATION =       1.0000000000

                ONE ELECTRON ENERGY =     -13.1715306463
                TWO ELECTRON ENERGY =       3.7803961328
           NUCLEAR REPULSION ENERGY =       1.4432106797
                                      ------------------
                       TOTAL ENERGY =      -7.9479238338

 ELECTRON-ELECTRON POTENTIAL ENERGY =       3.7803961328
  NUCLEUS-ELECTRON POTENTIAL ENERGY =     -21.5047960772
   NUCLEUS-NUCLEUS POTENTIAL ENERGY =       1.4432106797
                                      ------------------
             TOTAL POTENTIAL ENERGY =     -16.2811892647
               TOTAL KINETIC ENERGY =       8.3332654309
                 VIRIAL RATIO (V/T) =       1.9537586316

          ---------------------------------------
          MULLIKEN AND LOWDIN POPULATION ANALYSES
          ---------------------------------------

               ----- POPULATIONS IN EACH AO -----
                             MULLIKEN      LOWDIN
              1  LI 1  S      1.99346     1.95489
              2  LI 1  S      0.35122     0.19155
              3  LI 1  X      0.00482     0.00358
              4  LI 1  Y      0.00482     0.00358
              5  LI 1  Z      0.42369     0.31315
              6  LI 1  S      0.14486     0.16505
              7  LI 1  X     -0.00100     0.00015
              8  LI 1  Y     -0.00100     0.00015
              9  LI 1  Z     -0.06502     0.03468
             10  LI 1 XX      0.00158     0.05249
             11  LI 1 YY      0.00158     0.05249
             12  LI 1 ZZ      0.06587     0.17699
             13  LI 1 XY      0.00002     0.00002
             14  LI 1 XZ      0.00276     0.00266
             15  LI 1 YZ      0.00276     0.00266
             16  H  2  S      0.55469     0.49857
             17  H  2  S      0.50955     0.52836
             18  H  2  X      0.00171     0.00188
             19  H  2  Y      0.00171     0.00188
             20  H  2  Z      0.00194     0.01520

          ----- MULLIKEN ATOMIC OVERLAP POPULATIONS -----
          (OFF-DIAGONAL ELEMENTS NEED TO BE MULTIPLIED BY 2)

             1           2

    1    2.5513858
    2    0.3790217   0.6905708

          TOTAL MULLIKEN AND LOWDIN ATOMIC POPULATIONS
       ATOM         MULL.POP.    CHARGE          LOW.POP.     CHARGE
    1 LI            2.930407    0.069593         2.954096    0.045904
    2 H             1.069593   -0.069593         1.045904   -0.045904

          ---------------------
          ELECTROSTATIC MOMENTS
          ---------------------

 POINT   1           X           Y           Z (BOHR)    CHARGE
                 0.000000    0.000000    0.261093       -0.00 (A.U.)
         DX          DY          DZ         /D/  (DEBYE)
     0.000000    0.000000   -4.933574    4.933574
 ...... END OF PROPERTY EVALUATION ......
 STEP CPU TIME =     0.00 TOTAL CPU TIME =        0.3 (    0.0 MIN)
 TOTAL WALL CLOCK TIME=        0.4 SECONDS, CPU UTILIZATION IS  78.95%
               580000  WORDS OF DYNAMIC MEMORY USED
 EXECUTION OF GAMESS TERMINATED NORMALLY Thu Jan 17 17:44:40 2019
 DDI: 263640 bytes (0.3 MB / 0 MWords) used by master data server.

 ----------------------------------------
 CPU timing information for all processes
 ========================================
 0: 0.246 + 0.67 = 0.314
 1: 0.10 + 0.55 = 0.66
 ----------------------------------------
 ddikick.x: exited gracefully.
unset echo
----- accounting info -----
Files used on the master node bach.ad64.riken.go.jp were:
-rw-------  1 maho  staff      280  1 17 17:44 .//LiH.631g/1.1/LiH.631g.fullCI.1.1.gamess.F05
-rw-r--r--  1 maho  staff   180016  1 17 17:44 .//LiH.631g/1.1/LiH.631g.fullCI.1.1.gamess.F08
-rw-r--r--  1 maho  staff   181704  1 17 17:44 .//LiH.631g/1.1/LiH.631g.fullCI.1.1.gamess.F09
-rw-r--r--  1 maho  staff  1832320  1 17 17:44 .//LiH.631g/1.1/LiH.631g.fullCI.1.1.gamess.F10
-rw-r--r--  1 maho  staff    78640  1 17 17:44 .//LiH.631g/1.1/LiH.631g.fullCI.1.1.gamess.F12
-rw-r--r--  1 maho  staff    14499  1 17 17:44 .//LiH.631g/1.1/LiH.631g.fullCI.1.1.gamess.dat
-rw-------  1 maho  staff      280  1 17 17:44 .//LiH.631g/1.1/LiH.631g.fullCI.1.1.gamess.inp
-rw-r--r--  1 maho  staff    42466  1 17 17:44 .//LiH.631g/1.1/LiH.631g.fullCI.1.1.gamess.log
ls: No match.
ls: No match.
ls: No match.
2019年 1月17日 木曜日 17時44分43秒 JST
0.377u 0.236s 0:03.63 16.5%	0+0k 0+0io 0pf+0w
