----- GAMESS execution script 'rungms' -----
This job is running on host localhost
under operating system Linux at Thu Jan 17 18:12:54 JST 2019
Available scratch disk space (Kbyte units) at beginning of the job is
Filesystem     1K-blocks      Used Available Use% Mounted on
/dev/sda1      895286904 141744196 708041680  17% /
GAMESS temporary binary files will be written to .
GAMESS supplementary output files will be written to .
Copying input file N2.SV/2.7/N2.SV.fullCI.2.7.gamess.inp to your run's scratch directory...
cp N2.SV/2.7/N2.SV.fullCI.2.7.gamess.inp ./N2.SV/2.7/N2.SV.fullCI.2.7.gamess.F05
unset echo
/work/pubchem/pm6/pkg/gamess_intel/ddikick.x /work/pubchem/pm6/pkg/gamess_intel/gamess.00.x N2.SV/2.7/N2.SV.fullCI.2.7.gamess -ddi 12 12 localhost localhost localhost localhost localhost localhost localhost localhost localhost localhost localhost localhost -scr .

 Distributed Data Interface kickoff program.
 Initiating 12 compute processes on 12 nodes to run the following command:
 /work/pubchem/pm6/pkg/gamess_intel/gamess.00.x N2.SV/2.7/N2.SV.fullCI.2.7.gamess 

          ******************************************************
          *         GAMESS VERSION =  5 DEC 2014 (R1)          *
          *             FROM IOWA STATE UNIVERSITY             *
          * M.W.SCHMIDT, K.K.BALDRIDGE, J.A.BOATZ, S.T.ELBERT, *
          *   M.S.GORDON, J.H.JENSEN, S.KOSEKI, N.MATSUNAGA,   *
          *          K.A.NGUYEN, S.J.SU, T.L.WINDUS,           *
          *       TOGETHER WITH M.DUPUIS, J.A.MONTGOMERY       *
          *         J.COMPUT.CHEM.  14, 1347-1363(1993)        *
          **************** 64 BIT INTEL VERSION ****************

  SINCE 1993, STUDENTS AND POSTDOCS WORKING AT IOWA STATE UNIVERSITY
  AND ALSO IN THEIR VARIOUS JOBS AFTER LEAVING ISU HAVE MADE IMPORTANT
  CONTRIBUTIONS TO THE CODE:
     IVANA ADAMOVIC, CHRISTINE AIKENS, YURI ALEXEEV, POOJA ARORA,
     ANDREY ASADCHEV, ROB BELL, PRADIPTA BANDYOPADHYAY, JONATHAN BENTZ,
     BRETT BODE, KURT BRORSEN, CALEB CARLIN, GALINA CHABAN, WEI CHEN,
     CHEOL HO CHOI, PAUL DAY, ALBERT DEFUSCO, NUWAN DESILVA, TIM DUDLEY,
     DMITRI FEDOROV, GRAHAM FLETCHER, MARK FREITAG, KURT GLAESEMANN,
     DAN KEMP, GRANT MERRILL, NORIYUKI MINEZAWA, JONATHAN MULLIN,
     TAKESHI NAGATA, SEAN NEDD, HEATHER NETZLOFF, BOSILJKA NJEGIC, RYAN OLSON,
     MIKE PAK, SPENCER PRUITT, LUKE ROSKOP, JIM SHOEMAKER, LYUDMILA SLIPCHENKO,
     TONY SMITH, SAROM SOK, JIE SONG, TETSUYA TAKETSUGU, SIMON WEBB,
     PENG XU, SOOHAENG YOO, FEDERICO ZAHARIEV

  ADDITIONAL CODE HAS BEEN PROVIDED BY COLLABORATORS IN OTHER GROUPS:
     IOWA STATE UNIVERSITY:
          JOE IVANIC, AARON WEST, LAIMUTIS BYTAUTAS, KLAUS RUEDENBERG
     UNIVERSITY OF TOKYO: KIMIHIKO HIRAO, TAKAHITO NAKAJIMA,
          TAKAO TSUNEDA, MUNEAKI KAMIYA, SUSUMU YANAGISAWA,
          KIYOSHI YAGI, MAHITO CHIBA, SEIKEN TOKURA, NAOAKI KAWAKAMI
     UNIVERSITY OF AARHUS: FRANK JENSEN
     UNIVERSITY OF IOWA: VISVALDAS KAIRYS, HUI LI
     NATIONAL INST. OF STANDARDS AND TECHNOLOGY: WALT STEVENS, DAVID GARMER
     UNIVERSITY OF PISA: BENEDETTA MENNUCCI, JACOPO TOMASI
     UNIVERSITY OF MEMPHIS: HENRY KURTZ, PRAKASHAN KORAMBATH
     UNIVERSITY OF ALBERTA: TOBY ZENG, MARIUSZ KLOBUKOWSKI
     UNIVERSITY OF NEW ENGLAND: MARK SPACKMAN
     MIE UNIVERSITY: HIROAKI UMEDA
     NAT. INST. OF ADVANCED INDUSTRIAL SCIENCE AND TECHNOLOGY: KAZUO KITAURA
     MICHIGAN STATE UNIVERSITY:
          KAROL KOWALSKI, MARTA WLOCH, JEFFREY GOUR, JESSE LUTZ,
          WEI LI, PIOTR PIECUCH
     UNIVERSITY OF SILESIA: MONIKA MUSIAL, STANISLAW KUCHARSKI
     FACULTES UNIVERSITAIRES NOTRE-DAME DE LA PAIX:
          OLIVIER QUINET, BENOIT CHAMPAGNE
     UNIVERSITY OF CALIFORNIA - SANTA BARBARA: BERNARD KIRTMAN
     INSTITUTE FOR MOLECULAR SCIENCE:
          KAZUYA ISHIMURA, MICHIO KATOUDA, AND SHIGERU NAGASE
     UNIVERSITY OF NOTRE DAME: ANNA POMOGAEVA, DAN CHIPMAN
     KYUSHU UNIVERSITY:
          HARUYUKI NAKANO,
          FENG LONG GU, JACEK KORCHOWIEC, MARCIN MAKOWSKI, AND YURIKO AOKI,
          HIROTOSHI MORI AND EISAKU MIYOSHI
     PENNSYLVANIA STATE UNIVERSITY:
          TZVETELIN IORDANOV, CHET SWALINA, JONATHAN SKONE,
          SHARON HAMMES-SCHIFFER
     WASEDA UNIVERSITY:
          MASATO KOBAYASHI, TOMOKO AKAMA, TSUGUKI TOUMA,
          TAKESHI YOSHIKAWA, YASUHIRO IKABATA, HIROMI NAKAI
     NANJING UNIVERSITY: SHUHUA LI
     UNIVERSITY OF NEBRASKA:
          PEIFENG SU, DEJUN SI, NANDUN THELLAMUREGE, YALI WANG, HUI LI
     UNIVERSITY OF ZURICH: ROBERTO PEVERATI, KIM BALDRIDGE
     N. COPERNICUS UNIVERSITY AND JACKSON STATE UNIVERSITY:
          MARIA BARYSZ
     UNIVERSITY OF COPENHAGEN: CASPER STEINMANN
     TOKYO INSTITUTE OF TECHNOLOGY: HIROYA NAKATA
     NAGOYA UNIVERSITY: YOSHIO NISHIMOTO, STEPHAN IRLE


 PARALLEL VERSION RUNNING ON       12 PROCESSORS IN       12 NODES.

 EXECUTION OF GAMESS BEGUN Thu Jan 17 18:12:54 2019

            ECHO OF THE FIRST FEW INPUT CARDS -
 INPUT CARD> $CONTRL SCFTYP=RHF CITYP=ALDET $END                                            
 INPUT CARD> $GUESS GUESS=HUCKEL $END                                                       
 INPUT CARD> $SYSTEM MWORDS=300 $END                                                        
 INPUT CARD> $CIDET SZ=0 GROUP=C2V NCORE=2 NACT=16 NELS=10 NSTGSS=6 $END                    
 INPUT CARD> $DATA                                                                          
 INPUT CARD>N2...HF...Double-zeta basis                                                     
 INPUT CARD>Cnv   2                                                                         
 INPUT CARD>                                                                                
 INPUT CARD>N     7.0    0.0      0.0     0.0                                               
 INPUT CARD>S   7                                                                           
 INPUT CARD>  1   5909.0000000              0.0011900                                       
 INPUT CARD>  2    887.5000000              0.0090990                                       
 INPUT CARD>  3    204.7000000              0.0441450                                       
 INPUT CARD>  4     59.8400000              0.1504640                                       
 INPUT CARD>  5     20.0000000              0.3567410                                       
 INPUT CARD>  6      7.1930000              0.4465330                                       
 INPUT CARD>  7      2.6860000              0.1456030                                       
 INPUT CARD>S   2                                                                           
 INPUT CARD>  1      7.1930000             -0.1604050                                       
 INPUT CARD>  2      0.7000000              1.0582150                                       
 INPUT CARD>S   1                                                                           
 INPUT CARD>  1      0.2133000              1.0000000                                       
 INPUT CARD>P   4                                                                           
 INPUT CARD>  1     26.7900000              0.0182540                                       
 INPUT CARD>  2      5.9560000              0.1164610                                       
 INPUT CARD>  3      1.7070000              0.3901780                                       
 INPUT CARD>  4      0.5314000              0.6371020                                       
 INPUT CARD>P   1                                                                           
 INPUT CARD>  1      0.1654000              1.0000000                                       
 INPUT CARD>                                                                                
 INPUT CARD>N     7.0    0.0      0.0     2.7                                               
 INPUT CARD>S   7                                                                           
 INPUT CARD>  1   5909.0000000              0.0011900                                       
 INPUT CARD>  2    887.5000000              0.0090990                                       
 INPUT CARD>  3    204.7000000              0.0441450                                       
 INPUT CARD>  4     59.8400000              0.1504640                                       
 INPUT CARD>  5     20.0000000              0.3567410                                       
 INPUT CARD>  6      7.1930000              0.4465330                                       
 INPUT CARD>  7      2.6860000              0.1456030                                       
 INPUT CARD>S   2                                                                           
 INPUT CARD>  1      7.1930000             -0.1604050                                       
 INPUT CARD>  2      0.7000000              1.0582150                                       
 INPUT CARD>S   1                                                                           
 INPUT CARD>  1      0.2133000              1.0000000                                       
 INPUT CARD>P   4                                                                           
 INPUT CARD>  1     26.7900000              0.0182540                                       
 INPUT CARD>  2      5.9560000              0.1164610                                       
 INPUT CARD>  3      1.7070000              0.3901780                                       
 INPUT CARD>  4      0.5314000              0.6371020                                       
 INPUT CARD>P   1                                                                           
  300000000 WORDS OF MEMORY AVAILABLE


     RUN TITLE
     ---------
 N2...HF...Double-zeta basis                                                     

 THE POINT GROUP OF THE MOLECULE IS CNV     
 THE ORDER OF THE PRINCIPAL AXIS IS     2

 ATOM      ATOMIC                      COORDINATES (BOHR)
           CHARGE         X                   Y                   Z
 N           7.0     0.0000000000        0.0000000000        0.0000000000
 N           7.0     0.0000000000        0.0000000000        5.1022601668

          INTERNUCLEAR DISTANCES (ANGS.)
          ------------------------------

                1 N          2 N     

   1 N       0.0000000    2.7000000 *
   2 N       2.7000000 *  0.0000000  

  * ... LESS THAN  3.000


     ATOMIC BASIS SET
     ----------------
 THE CONTRACTED PRIMITIVE FUNCTIONS HAVE BEEN UNNORMALIZED
 THE CONTRACTED BASIS FUNCTIONS ARE NOW NORMALIZED TO UNITY

  SHELL TYPE  PRIMITIVE        EXPONENT          CONTRACTION COEFFICIENT(S)

 N         

      1   S       1          5909.0000000    0.001189999548
      1   S       2           887.5000000    0.009098996542
      1   S       3           204.7000000    0.044144983225
      1   S       4            59.8400000    0.150463942825
      1   S       5            20.0000000    0.356740864442
      1   S       6             7.1930000    0.446532830321
      1   S       7             2.6860000    0.145602944672

      2   S       8             7.1930000   -0.160405033446
      2   S       9             0.7000000    1.058215220651

      3   S      10             0.2133000    1.000000000000

      4   P      11            26.7900000    0.018253998243
      4   P      12             5.9560000    0.116460988791
      4   P      13             1.7070000    0.390177962446
      4   P      14             0.5314000    0.637101938680

      5   P      15             0.1654000    1.000000000000

 N         

      6   S      16          5909.0000000    0.001189999548
      6   S      17           887.5000000    0.009098996542
      6   S      18           204.7000000    0.044144983225
      6   S      19            59.8400000    0.150463942825
      6   S      20            20.0000000    0.356740864442
      6   S      21             7.1930000    0.446532830321
      6   S      22             2.6860000    0.145602944672

      7   S      23             7.1930000   -0.160405033446
      7   S      24             0.7000000    1.058215220651

      8   S      25             0.2133000    1.000000000000

      9   P      26            26.7900000    0.018253998243
      9   P      27             5.9560000    0.116460988791
      9   P      28             1.7070000    0.390177962446
      9   P      29             0.5314000    0.637101938680

     10   P      30             0.1654000    1.000000000000

 TOTAL NUMBER OF BASIS SET SHELLS             =   10
 NUMBER OF CARTESIAN GAUSSIAN BASIS FUNCTIONS =   18
 NUMBER OF ELECTRONS                          =   14
 CHARGE OF MOLECULE                           =    0
 SPIN MULTIPLICITY                            =    1
 NUMBER OF OCCUPIED ORBITALS (ALPHA)          =    7
 NUMBER OF OCCUPIED ORBITALS (BETA )          =    7
 TOTAL NUMBER OF ATOMS                        =    2
 THE NUCLEAR REPULSION ENERGY IS        9.6035871158

 THIS MOLECULE IS RECOGNIZED AS BEING LINEAR,
 ORBITAL LZ DEGENERACY TOLERANCE ETOLLZ= 1.00E-06

     $CONTRL OPTIONS
     ---------------
 SCFTYP=RHF          RUNTYP=ENERGY       EXETYP=RUN     
 MPLEVL=       0     CITYP =ALDET        CCTYP =NONE         VBTYP =NONE    
 DFTTYP=NONE         TDDFT =NONE    
 MULT  =       1     ICHARG=       0     NZVAR =       0     COORD =UNIQUE  
 PP    =NONE         RELWFN=NONE         LOCAL =NONE         NUMGRD=       F
 ISPHER=      -1     NOSYM =       0     MAXIT =      30     UNITS =ANGS    
 PLTORB=       F     MOLPLT=       F     AIMPAC=       F     FRIEND=        
 NPRINT=       7     IREST =       0     GEOM  =INPUT   
 NORMF =       0     NORMP =       0     ITOL  =      20     ICUT  =       9
 INTTYP=BEST         GRDTYP=BEST         QMTTOL= 1.0E-06

     $SYSTEM OPTIONS
     ---------------
  REPLICATED MEMORY=   300000000 WORDS (ON EVERY NODE).
 DISTRIBUTED MEMDDI=           0 MILLION WORDS IN AGGREGATE,
 MEMDDI DISTRIBUTED OVER  12 PROCESSORS IS           0 WORDS/PROCESSOR.
 TOTAL MEMORY REQUESTED ON EACH PROCESSOR=   300000000 WORDS.
 TIMLIM=      525600.00 MINUTES, OR     365.0 DAYS.
 PARALL= T  BALTYP=  DLB     KDIAG=    0  COREFL= F
 MXSEQ2=     300 MXSEQ3=     150  mem10=         0

          ----------------
          PROPERTIES INPUT
          ----------------

     MOMENTS            FIELD           POTENTIAL          DENSITY
 IEMOM =       1   IEFLD =       0   IEPOT =       0   IEDEN =       0
 WHERE =COMASS     WHERE =NUCLEI     WHERE =NUCLEI     WHERE =NUCLEI  
 OUTPUT=BOTH       OUTPUT=BOTH       OUTPUT=BOTH       OUTPUT=BOTH    
 IEMINT=       0   IEFINT=       0                     IEDINT=       0
                                                       MORB  =       0
          EXTRAPOLATION IN EFFECT
          SOSCF IN EFFECT
 ORBITAL PRINTING OPTION: NPREO=     1    18     2     1

     -------------------------------
     INTEGRAL TRANSFORMATION OPTIONS
     -------------------------------
     NWORD  =            0
     CUTOFF = 1.0E-09     MPTRAN =       0
     DIRTRF =       F     AOINTS =DUP     

          ----------------------
          INTEGRAL INPUT OPTIONS
          ----------------------
 NOPK  =       1 NORDER=       0 SCHWRZ=       F

     ------------------------------------------
     THE POINT GROUP IS CNV, NAXIS= 2, ORDER= 4
     ------------------------------------------

     DIMENSIONS OF THE SYMMETRY SUBSPACES ARE
 A1  =   10     A2  =    0     B1  =    4     B2  =    4

 ..... DONE SETTING UP THE RUN .....
 CPU     0: STEP CPU TIME=     0.01 TOTAL CPU TIME=        0.0 (    0.0 MIN)
 TOTAL WALL CLOCK TIME=        0.0 SECONDS, CPU UTILIZATION IS  50.00%

          ********************
          1 ELECTRON INTEGRALS
          ********************
 ...... END OF ONE-ELECTRON INTEGRALS ......
 CPU     0: STEP CPU TIME=     0.00 TOTAL CPU TIME=        0.0 (    0.0 MIN)
 TOTAL WALL CLOCK TIME=        0.1 SECONDS, CPU UTILIZATION IS  20.00%

          -------------
          GUESS OPTIONS
          -------------
          GUESS =HUCKEL            NORB  =       0          NORDER=       0
          MIX   =       F          PRTMO =       F          PUNMO =       F
          TOLZ  = 1.0E-08          TOLE  = 1.0E-05
          SYMDEN=       F          PURIFY=       F

 INITIAL GUESS ORBITALS GENERATED BY HUCKEL   ROUTINE.
 HUCKEL GUESS REQUIRES      4352 WORDS.

 SYMMETRIES FOR INITIAL GUESS ORBITALS FOLLOW.   BOTH SET(S).
     7 ORBITALS ARE OCCUPIED (    2 CORE ORBITALS).
     3=A1       4=A1       5=A1       6=B1       7=B2       8=B1       9=B2  
    10=A1      11=A1      12=A1      13=A1      14=A1      15=B1      16=B1  
    17=B2  
 ...... END OF INITIAL ORBITAL SELECTION ......
 CPU     0: STEP CPU TIME=     0.01 TOTAL CPU TIME=        0.0 (    0.0 MIN)
 TOTAL WALL CLOCK TIME=        0.1 SECONDS, CPU UTILIZATION IS  40.00%

                    ----------------------
                    AO INTEGRAL TECHNOLOGY
                    ----------------------
     S,P,L SHELL ROTATED AXIS INTEGRALS, REPROGRAMMED BY
        KAZUYA ISHIMURA (IMS) AND JOSE SIERRA (SYNSTAR).
     S,P,D,L SHELL ROTATED AXIS INTEGRALS PROGRAMMED BY
        KAZUYA ISHIMURA (INSTITUTE FOR MOLECULAR SCIENCE).
     S,P,D,F,G SHELL TO TOTAL QUARTET ANGULAR MOMENTUM SUM 5,
        ERIC PROGRAM BY GRAHAM FLETCHER (ELORET AND NASA ADVANCED
        SUPERCOMPUTING DIVISION, AMES RESEARCH CENTER).
     S,P,D,F,G,L SHELL GENERAL RYS QUADRATURE PROGRAMMED BY
        MICHEL DUPUIS (PACIFIC NORTHWEST NATIONAL LABORATORY).

          --------------------
          2 ELECTRON INTEGRALS
          --------------------

 THE -PK- OPTION IS OFF, THE INTEGRALS ARE NOT IN SUPERMATRIX FORM.
 STORING   15000 INTEGRALS/RECORD ON DISK, USING 12 BYTES/INTEGRAL.
 TWO ELECTRON INTEGRAL EVALUATION REQUIRES   89411 WORDS OF MEMORY.
 II,JST,KST,LST =  1  1  1  1 NREC =         1 INTLOC =    1
 II,JST,KST,LST =  2  1  1  1 NREC =         1 INTLOC =    2
 II,JST,KST,LST =  3  1  1  1 NREC =         1 INTLOC =    3
 II,JST,KST,LST =  4  1  1  1 NREC =         1 INTLOC =   13
 II,JST,KST,LST =  5  1  1  1 NREC =         1 INTLOC =   13
 II,JST,KST,LST =  6  1  1  1 NREC =         1 INTLOC =   73
 II,JST,KST,LST =  7  1  1  1 NREC =         1 INTLOC =  106
 II,JST,KST,LST =  8  1  1  1 NREC =         1 INTLOC =  106
 II,JST,KST,LST =  9  1  1  1 NREC =         1 INTLOC =  106
 II,JST,KST,LST = 10  1  1  1 NREC =         1 INTLOC =  250
 TOTAL NUMBER OF NONZERO TWO-ELECTRON INTEGRALS =                4135
         12 INTEGRAL RECORDS WERE STORED ON DISK FILE  8.
  ...... END OF TWO-ELECTRON INTEGRALS .....
 CPU     0: STEP CPU TIME=     0.01 TOTAL CPU TIME=        0.0 (    0.0 MIN)
 TOTAL WALL CLOCK TIME=        0.1 SECONDS, CPU UTILIZATION IS  42.86%

          --------------------------
                 RHF SCF CALCULATION
          --------------------------

     NUCLEAR ENERGY =         9.6035871158
     MAXIT =   30     NPUNCH=    2
     EXTRAP=T  DAMP=F  SHIFT=F  RSTRCT=F  DIIS=F  DEM=F  SOSCF=T
     DENSITY MATRIX CONV=  1.00E-06
     SOSCF WILL OPTIMIZE      77 ORBITAL ROTATIONS, SOGTOL=   0.250
     MEMORY REQUIRED FOR RHF ITERS=     32828 WORDS.

 ITER EX DEM     TOTAL ENERGY        E CHANGE  DENSITY CHANGE     ORB. GRAD
   1  0  0     -107.8817665208  -107.8817665208   0.247762646   0.000000000
          ---------------START SECOND ORDER SCF---------------
   2  1  0     -108.0694625735    -0.1876960527   0.110841627   0.055124683
   3  2  0     -108.0816913989    -0.0122288253   0.018485467   0.017591919
   4  3  0     -108.0833230138    -0.0016316149   0.003184501   0.001388781
   5  4  0     -108.0833354821    -0.0000124684   0.000907478   0.000352469
   6  5  0     -108.0833359075    -0.0000004254   0.000016986   0.000010182
   7  6  0     -108.0833359079    -0.0000000003   0.000001489   0.000000981
   8  7  0     -108.0833359079    -0.0000000000   0.000000153   0.000000123

          -----------------
          DENSITY CONVERGED
          -----------------
     TIME TO FORM FOCK OPERATORS=       0.0 SECONDS (       0.0 SEC/ITER)
     TIME TO SOLVE SCF EQUATIONS=       0.0 SECONDS (       0.0 SEC/ITER)

 FINAL RHF ENERGY IS     -108.0833359079 AFTER   8 ITERATIONS

 LZ VALUE ANALYSIS FOR THE MOS
 ----------------------------------------
 MO     1 (    1) HAS LZ(WEIGHT)= 0.00(100.0%) 
 MO     2 (    2) HAS LZ(WEIGHT)= 0.00(100.0%) 
 MO     3 (    3) HAS LZ(WEIGHT)= 0.00(100.0%) 
 MO     4 (    4) HAS LZ(WEIGHT)= 0.00(100.0%) 
 MO     5 (    5) HAS LZ(WEIGHT)= 0.00(100.0%) 
 MO     6 (    6) HAS LZ(WEIGHT)=-1.00( 50.0%)  1.00( 50.0%) 
 MO     7 (    6) HAS LZ(WEIGHT)=-1.00( 50.0%)  1.00( 50.0%) 
 MO     8 (    7) HAS LZ(WEIGHT)=-1.00( 50.0%)  1.00( 50.0%) 
 MO     9 (    7) HAS LZ(WEIGHT)=-1.00( 50.0%)  1.00( 50.0%) 
 MO    10 (    8) HAS LZ(WEIGHT)= 0.00(100.0%) 
 MO    11 (    9) HAS LZ(WEIGHT)=-1.00( 50.0%)  1.00( 50.0%) 
 MO    12 (    9) HAS LZ(WEIGHT)=-1.00( 50.0%)  1.00( 50.0%) 
 MO    13 (   10) HAS LZ(WEIGHT)= 0.00(100.0%) 
 MO    14 (   11) HAS LZ(WEIGHT)= 0.00(100.0%) 
 MO    15 (   12) HAS LZ(WEIGHT)=-1.00( 50.0%)  1.00( 50.0%) 
 MO    16 (   12) HAS LZ(WEIGHT)=-1.00( 50.0%)  1.00( 50.0%) 
 MO    17 (   13) HAS LZ(WEIGHT)= 0.00(100.0%) 
 MO    18 (   14) HAS LZ(WEIGHT)= 0.00(100.0%) 

          ------------
          EIGENVECTORS
          ------------

                      1          2          3          4          5
                  -15.8449   -15.8448    -1.0562    -1.0190    -0.4005
                     A1         A1         A1         A1         A1  
    1  N  1  S    0.706992  -0.707005  -0.171485  -0.174908   0.013573
    2  N  1  S   -0.000228   0.000267   0.404815   0.420535  -0.051844
    3  N  1  S    0.000960  -0.000950   0.353600   0.353511  -0.015019
    4  N  1  X    0.000000   0.000000   0.000000   0.000000   0.000000
    5  N  1  Y    0.000000   0.000000   0.000000   0.000000   0.000000
    6  N  1  Z    0.000342  -0.000215   0.009126  -0.029235   0.482441
    7  N  1  X    0.000000   0.000000   0.000000   0.000000   0.000000
    8  N  1  Y    0.000000   0.000000   0.000000   0.000000   0.000000
    9  N  1  Z   -0.000121   0.000060   0.008657  -0.011443   0.270894
   10  N  2  S    0.706992   0.707005  -0.171485   0.174908   0.013573
   11  N  2  S   -0.000228  -0.000267   0.404815  -0.420535  -0.051844
   12  N  2  S    0.000960   0.000950   0.353600  -0.353511  -0.015019
   13  N  2  X    0.000000   0.000000   0.000000   0.000000   0.000000
   14  N  2  Y    0.000000   0.000000   0.000000   0.000000   0.000000
   15  N  2  Z   -0.000342  -0.000215  -0.009126  -0.029235  -0.482441
   16  N  2  X    0.000000   0.000000   0.000000   0.000000   0.000000
   17  N  2  Y    0.000000   0.000000   0.000000   0.000000   0.000000
   18  N  2  Z    0.000121   0.000060  -0.008657  -0.011443  -0.270894

                      6          7          8          9         10
                   -0.3640    -0.3640    -0.1567    -0.1567    -0.1076
                     B1         B2         B1         B2         A1  
    1  N  1  S    0.000000   0.000000   0.000000   0.000000  -0.019234
    2  N  1  S    0.000000   0.000000   0.000000   0.000000   0.055131
    3  N  1  S    0.000000   0.000000   0.000000   0.000000   0.042645
    4  N  1  X    0.499805   0.000000  -0.517007   0.000000   0.000000
    5  N  1  Y    0.000000   0.499805   0.000000  -0.517007   0.000000
    6  N  1  Z    0.000000   0.000000   0.000000   0.000000   0.536109
    7  N  1  X    0.288439   0.000000  -0.295467   0.000000   0.000000
    8  N  1  Y    0.000000   0.288439   0.000000  -0.295467   0.000000
    9  N  1  Z    0.000000   0.000000   0.000000   0.000000   0.327904
   10  N  2  S    0.000000   0.000000   0.000000   0.000000   0.019234
   11  N  2  S    0.000000   0.000000   0.000000   0.000000  -0.055131
   12  N  2  S    0.000000   0.000000   0.000000   0.000000  -0.042645
   13  N  2  X    0.499805   0.000000   0.517007   0.000000   0.000000
   14  N  2  Y    0.000000   0.499805   0.000000   0.517007   0.000000
   15  N  2  Z    0.000000   0.000000   0.000000   0.000000   0.536109
   16  N  2  X    0.288439   0.000000   0.295467   0.000000   0.000000
   17  N  2  Y    0.000000   0.288439   0.000000   0.295467   0.000000
   18  N  2  Z    0.000000   0.000000   0.000000   0.000000   0.327904

                     11         12         13         14         15
                    0.5997     0.5997     0.6620     0.6765     0.6899
                     B1         B2         A1         A1         B1  
    1  N  1  S    0.000000   0.000000   0.029576  -0.045323   0.000000
    2  N  1  S    0.000000   0.000000  -0.219916   0.391286   0.000000
    3  N  1  S    0.000000   0.000000   0.122484  -0.269359   0.000000
    4  N  1  X   -0.656825   0.000000   0.000000   0.000000   0.664076
    5  N  1  Y    0.000000  -0.656825   0.000000   0.000000   0.000000
    6  N  1  Z    0.000000   0.000000  -0.667391  -0.600898   0.000000
    7  N  1  X    0.726217   0.000000   0.000000   0.000000  -0.844829
    8  N  1  Y    0.000000   0.726217   0.000000   0.000000   0.000000
    9  N  1  Z    0.000000   0.000000   0.635624   0.912114   0.000000
   10  N  2  S    0.000000   0.000000   0.029576   0.045323   0.000000
   11  N  2  S    0.000000   0.000000  -0.219916  -0.391286   0.000000
   12  N  2  S    0.000000   0.000000   0.122484   0.269359   0.000000
   13  N  2  X   -0.656825   0.000000   0.000000   0.000000  -0.664076
   14  N  2  Y    0.000000  -0.656825   0.000000   0.000000   0.000000
   15  N  2  Z    0.000000   0.000000   0.667391  -0.600898   0.000000
   16  N  2  X    0.726217   0.000000   0.000000   0.000000   0.844829
   17  N  2  Y    0.000000   0.726217   0.000000   0.000000   0.000000
   18  N  2  Z    0.000000   0.000000  -0.635624   0.912114   0.000000

                     16         17         18
                    0.6899     0.8524     1.1477
                     B2         A1         A1  
    1  N  1  S    0.000000  -0.088947   0.072556
    2  N  1  S    0.000000   1.065467  -1.113862
    3  N  1  S    0.000000  -1.057696   1.251155
    4  N  1  X    0.000000   0.000000   0.000000
    5  N  1  Y    0.664076   0.000000   0.000000
    6  N  1  Z    0.000000  -0.151276  -0.296733
    7  N  1  X    0.000000   0.000000   0.000000
    8  N  1  Y   -0.844829   0.000000   0.000000
    9  N  1  Z    0.000000   0.229112   0.634843
   10  N  2  S    0.000000  -0.088947  -0.072556
   11  N  2  S    0.000000   1.065467   1.113862
   12  N  2  S    0.000000  -1.057696  -1.251155
   13  N  2  X    0.000000   0.000000   0.000000
   14  N  2  Y   -0.664076   0.000000   0.000000
   15  N  2  Z    0.000000   0.151276  -0.296733
   16  N  2  X    0.000000   0.000000   0.000000
   17  N  2  Y    0.844829   0.000000   0.000000
   18  N  2  Z    0.000000  -0.229112   0.634843
 ...... END OF RHF CALCULATION ......
 CPU     0: STEP CPU TIME=     0.00 TOTAL CPU TIME=        0.0 (    0.0 MIN)
 TOTAL WALL CLOCK TIME=        0.1 SECONDS, CPU UTILIZATION IS  37.50%

     ----------------------------------------------------------------
     PROPERTY VALUES FOR THE RHF   SELF-CONSISTENT FIELD WAVEFUNCTION
     ----------------------------------------------------------------

          -----------------
          ENERGY COMPONENTS
          -----------------

         WAVEFUNCTION NORMALIZATION =       1.0000000000

                ONE ELECTRON ENERGY =    -165.5867017270
                TWO ELECTRON ENERGY =      47.8997787033
           NUCLEAR REPULSION ENERGY =       9.6035871158
                                      ------------------
                       TOTAL ENERGY =    -108.0833359079

 ELECTRON-ELECTRON POTENTIAL ENERGY =      47.8997787033
  NUCLEUS-ELECTRON POTENTIAL ENERGY =    -272.8365742504
   NUCLEUS-NUCLEUS POTENTIAL ENERGY =       9.6035871158
                                      ------------------
             TOTAL POTENTIAL ENERGY =    -215.3332084312
               TOTAL KINETIC ENERGY =     107.2498725233
                 VIRIAL RATIO (V/T) =       2.0077712296

  ...... PI ENERGY ANALYSIS ......

 ENERGY ANALYSIS:
            FOCK ENERGY=    -69.7871434373
          BARE H ENERGY=   -165.5867017270
     ELECTRONIC ENERGY =   -117.6869225822
         KINETIC ENERGY=    107.2498725233
          N-N REPULSION=      9.6035871158
           TOTAL ENERGY=   -108.0833354663
        SIGMA PART(1+2)=   -105.1731988236
               (K,V1,2)=    100.9445394518   -242.9599817615     36.8422434862
           PI PART(1+2)=    -12.5137237586
               (K,V1,2)=      6.3053330715    -29.8765924888     11.0575356587
  SIGMA SKELETON, ERROR=    -95.5696117078      0.0000000000
             MIXED PART= 0.00000E+00 0.00000E+00 0.00000E+00 0.00000E+00
 ...... END OF PI ENERGY ANALYSIS ......

          ---------------------------------------
          MULLIKEN AND LOWDIN POPULATION ANALYSES
          ---------------------------------------

               ----- POPULATIONS IN EACH AO -----
                             MULLIKEN      LOWDIN
              1  N  1  S      2.00013     1.99705
              2  N  1  S      1.07403     1.04087
              3  N  1  S      0.92181     0.95076
              4  N  1  X      0.65705     0.62718
              5  N  1  Y      0.65705     0.62718
              6  N  1  Z      0.63515     0.59195
              7  N  1  X      0.34295     0.37282
              8  N  1  Y      0.34295     0.37282
              9  N  1  Z      0.36888     0.41936
             10  N  2  S      2.00013     1.99705
             11  N  2  S      1.07403     1.04087
             12  N  2  S      0.92181     0.95076
             13  N  2  X      0.65705     0.62718
             14  N  2  Y      0.65705     0.62718
             15  N  2  Z      0.63515     0.59195
             16  N  2  X      0.34295     0.37282
             17  N  2  Y      0.34295     0.37282
             18  N  2  Z      0.36888     0.41936

          ----- MULLIKEN ATOMIC OVERLAP POPULATIONS -----
          (OFF-DIAGONAL ELEMENTS NEED TO BE MULTIPLIED BY 2)

             1           2

    1    6.8268654
    2    0.1731346   6.8268654

          TOTAL MULLIKEN AND LOWDIN ATOMIC POPULATIONS
       ATOM         MULL.POP.    CHARGE          LOW.POP.     CHARGE
    1 N             7.000000   -0.000000         7.000000   -0.000000
    2 N             7.000000    0.000000         7.000000    0.000000

          ---------------------
          ELECTROSTATIC MOMENTS
          ---------------------

 POINT   1           X           Y           Z (BOHR)    CHARGE
                 0.000000    0.000000    2.551130        0.00 (A.U.)
         DX          DY          DZ         /D/  (DEBYE)
     0.000000    0.000000    0.000000    0.000000
 ...... END OF PROPERTY EVALUATION ......
 CPU     0: STEP CPU TIME=     0.01 TOTAL CPU TIME=        0.0 (    0.0 MIN)
 TOTAL WALL CLOCK TIME=        0.1 SECONDS, CPU UTILIZATION IS  33.33%

 DETERMINANT CI OPTIONS   NRNFG   NPFLG
 INTEGRAL TRANSFORMATION    1       0
 DIAGONALIZE HAMILTONIAN    1       0
 FORM 1E- DENSITY MATRIX    1       0
 FORM 2E- DENSITY MATRIX    0       0

     --------------------------------------------------
          AMES LABORATORY DETERMINANTAL FULL CI
     PROGRAM WRITTEN BY JOE IVANIC AND KLAUS RUEDENBERG
     --------------------------------------------------

 THE POINT GROUP                  =   C2V     
 THE STATE SYMMETRY               =   A1      
 NUMBER OF CORE ORBITALS          =    2
 NUMBER OF ACTIVE ORBITALS        =   16
 NUMBER OF ALPHA ELECTRONS        =    7 (   5 ACTIVE)
 NUMBER OF BETA ELECTRONS         =    7 (   5 ACTIVE)
 NUMBER OF OCCUPIED ORBITALS      =   18
 NUMBER OF CI STATES REQUESTED    =    1
 NUMBER OF CI STARTING VECTORS    =    6
 MAX. NO. OF CI EXPANSION VECTORS =   12
 SIZE OF INITIAL CI GUESS MATRIX  =  300
 MAX. NO. OF CI ITERS/STATE       =  100
 CI DIAGONALIZATION CRITERION     = 1.00E-06
 CI PROPERTIES WILL BE FOUND FOR ROOT NUMBER   1
 1E- DENSITY MATRIX OPTIONS ARE 1

 CORRELATION ENERGY ANALYSIS      =    F

 SYMMETRIES FOR THE   2 CORE,  16 ACTIVE ARE

     CORE= A1    A1  

   ACTIVE= A1    A1    A1    B1    B2    B1    B2    A1    B1    B2  
           A1    A1    B1    B2    A1    A1  

     --------------------------------------------
     PARTIAL TWO ELECTRON INTEGRAL TRANSFORMATION
     --------------------------------------------

 NUMBER OF CORE MOLECULAR ORBITALS     =    2
 NUMBER OF OCCUPIED MOLECULAR ORBITALS =   18
 TOTAL NUMBER OF MOLECULAR ORBITALS    =   18
 TOTAL NUMBER OF ATOMIC ORBITALS       =   18
 THRESHOLD FOR KEEPING TRANSFORMED 2E- INTEGRALS = 1.000E-09

 -------------------------------     ------------------------------
 DISTRIBUTED DATA TRANSFORMATION     PROGRAM WRITTEN BY G. FLETCHER
 -------------------------------     ------------------------------

 THE DISTRIBUTED MEMORY REQUIRED FOR THIS STEP IS MEMDDI=         1 MWORDS
 CREATING DISTRIBUTED STORAGE FOR [OCC OCC|OCC OCC] INTEGRALS
 DDI: Creating Array [0] - 171 x 171 = 29241 words.
 CREATING WORKSPACE OF SIZE VVOO
 DDI: Creating Array [1] - 171 x 171 = 29241 words.
 FOR   12 PROCESSORS, THE REPLICATED MEMORY NEEDED IS       58507 WORDS.

      DIRECT 4-INDEX TRANSFORMATION 
      SCHWARZ INEQUALITY TEST SKIPPED          0 INTEGRAL BLOCKS
 ----- FROZEN CORE ENERGY =       -94.1681004549
 ... END OF INTEGRAL TRANSFORMATION ...
 CPU     0: STEP CPU TIME=     0.00 TOTAL CPU TIME=        0.0 (    0.0 MIN)
 TOTAL WALL CLOCK TIME=        0.2 SECONDS, CPU UTILIZATION IS  25.00%

     --------------------------------------------------
          AMES LABORATORY DETERMINANTAL FULL CI
     PROGRAM WRITTEN BY JOE IVANIC AND KLAUS RUEDENBERG
     --------------------------------------------------

 THE NUMBER OF DETERMINANTS HAVING SPACE SYMMETRY A1 
 IN POINT GROUP C2V  WITH SZ=  0.0 IS        4777056
 THE DETERMINANT FULL CI REQUIRES       119865995 WORDS
 INITIAL CI VECTOR GUESS TIME  :          1.9
 INITIAL FULL CI ITERATION TIME:          6.0

 ITERATION      ENERGY           GRADIENT
     0     -108.7427365869     0.45608011
     1     -108.8414660496     0.18387908
     2     -108.8533750537     0.07134841
     3     -108.8549890654     0.03419298
     4     -108.8554033455     0.01635745
     5     -108.8554813549     0.00674168
     6     -108.8554908956     0.00415811
     7     -108.8554934774     0.00247513
     8     -108.8554958870     0.00196657
     9     -108.8554972176     0.00185667
    10     -108.8554985276     0.00199598
    11     -108.8555001022     0.00250469
    12     -108.8555058237     0.00452616
    13     -108.8555228191     0.00912573
    14     -108.8562798366     0.06526570
    15     -108.8576299604     0.05052790
    16     -108.8583250374     0.03180908
    17     -108.8585667211     0.01866919
    18     -108.8586375653     0.01187923
    19     -108.8586644171     0.00804288
    20     -108.8586851942     0.00605293
    21     -108.8586965851     0.00403039
    22     -108.8587005517     0.00246511
    23     -108.8587026505     0.00187810
    24     -108.8587037893     0.00144294
    25     -108.8587042016     0.00084485
    26     -108.8587044218     0.00057433
    27     -108.8587045487     0.00051814
    28     -108.8587046156     0.00032572
    29     -108.8587046399     0.00017110
    30     -108.8587046459     0.00012657
    31     -108.8587046488     0.00008470
    32     -108.8587046513     0.00006086
    33     -108.8587046523     0.00004090
    34     -108.8587046527     0.00002264
    35     -108.8587046529     0.00001698
    36     -108.8587046530     0.00001444
    37     -108.8587046530     0.00000882
    38     -108.8587046531     0.00000655
    39     -108.8587046531     0.00000592
    40     -108.8587046531     0.00000368
    41     -108.8587046531     0.00000215
    42     -108.8587046531     0.00000189
    43     -108.8587046531     0.00000121
    44     -108.8587046531     0.00000091

 CONVERGED STATE    1 ENERGY=     -108.8587046531 IN   44 ITERS

 ALL STATES CONVERGED.

 CI EIGENVECTORS WILL BE LABELED IN GROUP=C2V     
 PRINTING CI COEFFICIENTS LARGER THAN  0.050000

 STATE   1  ENERGY=      -108.8587046531  S=  0.00  SZ=  0.00  SPACE SYM=A1  

      ALPHA       |      BETA        | COEFFICIENT
------------------|------------------|------------
 1111100000000000 | 1111100000000000 |   0.3135396
 1110110000000000 | 1110110000000000 |  -0.2838670
 1111001000000000 | 1111001000000000 |  -0.2838670
 1110011000000000 | 1110011000000000 |   0.2585335
 1101100100000000 | 1101100100000000 |  -0.2149798
 1100110100000000 | 1100110100000000 |   0.1999930
 1101001100000000 | 1101001100000000 |   0.1999930
 1111010000000000 | 1110101000000000 |  -0.1884785
 1110101000000000 | 1111010000000000 |  -0.1884785
 1100011100000000 | 1100011100000000 |  -0.1873473
 1111000100000000 | 1101101000000000 |  -0.1572043
 1101101000000000 | 1111000100000000 |  -0.1572043
 1101110000000000 | 1110100100000000 |  -0.1572043
 1110100100000000 | 1101110000000000 |  -0.1572043
 1110010100000000 | 1100111000000000 |  -0.1445673
 1100111000000000 | 1110010100000000 |  -0.1445673
 1101011000000000 | 1110001100000000 |  -0.1445673
 1110001100000000 | 1101011000000000 |  -0.1445673
 1101010100000000 | 1100101100000000 |   0.1327559
 1100101100000000 | 1101010100000000 |   0.1327559
 1110110000000000 | 1111001000000000 |  -0.0951663
 1111001000000000 | 1110110000000000 |  -0.0951663
 1111100000000000 | 1110011000000000 |  -0.0933123
 1110011000000000 | 1111100000000000 |  -0.0933123
 1110110000000000 | 1101100100000000 |  -0.0818835
 1101100100000000 | 1110110000000000 |  -0.0818835
 1101100100000000 | 1111001000000000 |  -0.0818835
 1111001000000000 | 1101100100000000 |  -0.0818835
 1110011000000000 | 1101001100000000 |  -0.0753992
 1101001100000000 | 1110011000000000 |  -0.0753992
 1100110100000000 | 1110011000000000 |  -0.0753992
 1110011000000000 | 1100110100000000 |  -0.0753992
 1111100000000000 | 1100110100000000 |   0.0753207
 1100110100000000 | 1111100000000000 |   0.0753207
 1101001100000000 | 1111100000000000 |   0.0753207
 1111100000000000 | 1101001100000000 |   0.0753207
 1111001000000000 | 1100011100000000 |   0.0691681
 1100011100000000 | 1111001000000000 |   0.0691681
 1100011100000000 | 1110110000000000 |   0.0691681
 1110110000000000 | 1100011100000000 |   0.0691681
 1100110100000000 | 1101001100000000 |   0.0670980
 1101001100000000 | 1100110100000000 |   0.0670980
 1101100100000000 | 1100011100000000 |   0.0656580
 1100011100000000 | 1101100100000000 |   0.0656580
 ..... DONE WITH DETERMINANT CI COMPUTATION .....
 CPU     0: STEP CPU TIME=   119.84 TOTAL CPU TIME=      119.9 (    2.0 MIN)
 TOTAL WALL CLOCK TIME=      154.1 SECONDS, CPU UTILIZATION IS  77.78%

     ---------------------------
     ONE PARTICLE DENSITY MATRIX
     ---------------------------

 DENSITY MATRIX WILL BE SAVED FOR   1-TH STATE WITH S= 0.00

 CI EIGENSTATE   1 TOTAL ENERGY =     -108.8587046531

          NATURAL ORBITALS IN ATOMIC ORBITAL BASIS
          ----------------------------------------

                      1          2          3          4          5
                    2.0000     2.0000     1.9858     1.9825     1.2310
                     A1         A1         A1         A1         A1  
    1  N  1  S    0.706992  -0.707005  -0.169133  -0.172913   0.005239
    2  N  1  S   -0.000228   0.000267   0.375550   0.389845  -0.011743
    3  N  1  S    0.000960  -0.000950   0.383406   0.387395  -0.024656
    4  N  1  X    0.000000   0.000000   0.000000   0.000000   0.000000
    5  N  1  Y    0.000000   0.000000   0.000000   0.000000   0.000000
    6  N  1  Z    0.000342  -0.000215  -0.004451  -0.001035   0.533049
    7  N  1  X    0.000000   0.000000   0.000000   0.000000   0.000000
    8  N  1  Y    0.000000   0.000000   0.000000   0.000000   0.000000
    9  N  1  Z   -0.000121   0.000060  -0.001775  -0.004699   0.221320
   10  N  2  S    0.706992   0.707005  -0.169133   0.172913   0.005239
   11  N  2  S   -0.000228  -0.000267   0.375550  -0.389845  -0.011743
   12  N  2  S    0.000960   0.000950   0.383406  -0.387395  -0.024656
   13  N  2  X    0.000000   0.000000   0.000000   0.000000   0.000000
   14  N  2  Y    0.000000   0.000000   0.000000   0.000000   0.000000
   15  N  2  Z   -0.000342  -0.000215   0.004451  -0.001035  -0.533049
   16  N  2  X    0.000000   0.000000   0.000000   0.000000   0.000000
   17  N  2  Y    0.000000   0.000000   0.000000   0.000000   0.000000
   18  N  2  Z    0.000121   0.000060   0.001775  -0.004699  -0.221320

                      6          7          8          9         10
                    1.0542     1.0542     0.9367     0.9367     0.7615
                     B2         B1         B1         B2         A1  
    1  N  1  S    0.000000   0.000000   0.000000   0.000000  -0.008858
    2  N  1  S    0.000000   0.000000   0.000000   0.000000   0.018978
    3  N  1  S    0.000000   0.000000   0.000000   0.000000   0.032808
    4  N  1  X    0.000000   0.551685  -0.568582   0.000000   0.000000
    5  N  1  Y    0.551685   0.000000   0.000000  -0.568582   0.000000
    6  N  1  Z    0.000000   0.000000   0.000000   0.000000   0.594654
    7  N  1  X    0.000000   0.228278  -0.226786   0.000000   0.000000
    8  N  1  Y    0.228278   0.000000   0.000000  -0.226786   0.000000
    9  N  1  Z    0.000000   0.000000   0.000000   0.000000   0.232426
   10  N  2  S    0.000000   0.000000   0.000000   0.000000   0.008858
   11  N  2  S    0.000000   0.000000   0.000000   0.000000  -0.018978
   12  N  2  S    0.000000   0.000000   0.000000   0.000000  -0.032808
   13  N  2  X    0.000000   0.551685   0.568582   0.000000   0.000000
   14  N  2  Y    0.551685   0.000000   0.000000   0.568582   0.000000
   15  N  2  Z    0.000000   0.000000   0.000000   0.000000   0.594654
   16  N  2  X    0.000000   0.228278   0.226786   0.000000   0.000000
   17  N  2  Y    0.228278   0.000000   0.000000   0.226786   0.000000
   18  N  2  Z    0.000000   0.000000   0.000000   0.000000   0.232426

                     11         12         13         14         15
                    0.0128     0.0098     0.0069     0.0067     0.0067
                     A1         A1         A1         B2         B1  
    1  N  1  S   -0.097542  -0.088636   0.015162   0.000000   0.000000
    2  N  1  S    1.059854   1.061952  -0.292708   0.000000   0.000000
    3  N  1  S   -0.986061  -1.040012   0.372903   0.000000   0.000000
    4  N  1  X    0.000000   0.000000   0.000000   0.000000  -0.613895
    5  N  1  Y    0.000000   0.000000   0.000000  -0.613895   0.000000
    6  N  1  Z    0.147402  -0.202832   0.628681   0.000000   0.000000
    7  N  1  X    0.000000   0.000000   0.000000   0.000000   0.747313
    8  N  1  Y    0.000000   0.000000   0.000000   0.747313   0.000000
    9  N  1  Z   -0.098042   0.245734  -0.686565   0.000000   0.000000
   10  N  2  S   -0.097542   0.088636   0.015162   0.000000   0.000000
   11  N  2  S    1.059854  -1.061952  -0.292708   0.000000   0.000000
   12  N  2  S   -0.986061   1.040012   0.372903   0.000000   0.000000
   13  N  2  X    0.000000   0.000000   0.000000   0.000000  -0.613895
   14  N  2  Y    0.000000   0.000000   0.000000  -0.613895   0.000000
   15  N  2  Z   -0.147402  -0.202832  -0.628681   0.000000   0.000000
   16  N  2  X    0.000000   0.000000   0.000000   0.000000   0.747313
   17  N  2  Y    0.000000   0.000000   0.000000   0.747313   0.000000
   18  N  2  Z    0.098042   0.245734   0.686565   0.000000   0.000000

                     16         17         18
                    0.0054     0.0054     0.0037
                     B1         B2         A1  
    1  N  1  S    0.000000   0.000000   0.021154
    2  N  1  S    0.000000   0.000000  -0.541850
    3  N  1  S    0.000000   0.000000   0.729353
    4  N  1  X    0.620490   0.000000   0.000000
    5  N  1  Y    0.000000   0.620490   0.000000
    6  N  1  Z    0.000000   0.000000  -0.585355
    7  N  1  X   -0.865797   0.000000   0.000000
    8  N  1  Y    0.000000  -0.865797   0.000000
    9  N  1  Z    0.000000   0.000000   1.108242
   10  N  2  S    0.000000   0.000000  -0.021154
   11  N  2  S    0.000000   0.000000   0.541850
   12  N  2  S    0.000000   0.000000  -0.729353
   13  N  2  X   -0.620490   0.000000   0.000000
   14  N  2  Y    0.000000  -0.620490   0.000000
   15  N  2  Z    0.000000   0.000000  -0.585355
   16  N  2  X    0.865797   0.000000   0.000000
   17  N  2  Y    0.000000   0.865797   0.000000
   18  N  2  Z    0.000000   0.000000   1.108242
 ..... DONE WITH ONE PARTICLE DENSITY MATRIX .....
 CPU     0: STEP CPU TIME=     1.04 TOTAL CPU TIME=      120.9 (    2.0 MIN)
 TOTAL WALL CLOCK TIME=      155.5 SECONDS, CPU UTILIZATION IS  77.77%

     --------------------------------------------------------
     ALDET CI PROPERTIES...FOR THE WAVEFUNCTION OF STATE    1
               USING THE EXPECTATION VALUE DENSITY
     --------------------------------------------------------

          -----------------
          ENERGY COMPONENTS
          -----------------

         WAVEFUNCTION NORMALIZATION =       1.0000000000

                ONE ELECTRON ENERGY =    -166.8530834138
                TWO ELECTRON ENERGY =      48.3907916449
           NUCLEAR REPULSION ENERGY =       9.6035871158
                                      ------------------
                       TOTAL ENERGY =    -108.8587046531

 ELECTRON-ELECTRON POTENTIAL ENERGY =      48.3907916449
  NUCLEUS-ELECTRON POTENTIAL ENERGY =    -275.5516394561
   NUCLEUS-NUCLEUS POTENTIAL ENERGY =       9.6035871158
                                      ------------------
             TOTAL POTENTIAL ENERGY =    -217.5572606954
               TOTAL KINETIC ENERGY =     108.6985560423
                 VIRIAL RATIO (V/T) =       2.0014733279

          ---------------------------------------
          MULLIKEN AND LOWDIN POPULATION ANALYSES
          ---------------------------------------

               ----- POPULATIONS IN EACH AO -----
                             MULLIKEN      LOWDIN
              1  N  1  S      2.00014     1.99628
              2  N  1  S      0.98302     0.98600
              3  N  1  S      1.01049     1.00395
              4  N  1  X      0.75908     0.72002
              5  N  1  Y      0.75908     0.72002
              6  N  1  Z      0.75633     0.71551
              7  N  1  X      0.24242     0.28148
              8  N  1  Y      0.24242     0.28148
              9  N  1  Z      0.24702     0.29525
             10  N  2  S      2.00014     1.99628
             11  N  2  S      0.98302     0.98600
             12  N  2  S      1.01049     1.00395
             13  N  2  X      0.75908     0.72002
             14  N  2  Y      0.75908     0.72002
             15  N  2  Z      0.75633     0.71551
             16  N  2  X      0.24242     0.28148
             17  N  2  Y      0.24242     0.28148
             18  N  2  Z      0.24702     0.29525

          ----- MULLIKEN ATOMIC OVERLAP POPULATIONS -----
          (OFF-DIAGONAL ELEMENTS NEED TO BE MULTIPLIED BY 2)

             1           2

    1    6.9899818
    2    0.0100182   6.9899818

          TOTAL MULLIKEN AND LOWDIN ATOMIC POPULATIONS
       ATOM         MULL.POP.    CHARGE          LOW.POP.     CHARGE
    1 N             7.000000    0.000000         7.000000    0.000000
    2 N             7.000000    0.000000         7.000000    0.000000

          ---------------------
          ELECTROSTATIC MOMENTS
          ---------------------

 POINT   1           X           Y           Z (BOHR)    CHARGE
                 0.000000    0.000000    2.551130        0.00 (A.U.)
         DX          DY          DZ         /D/  (DEBYE)
     0.000000    0.000000   -0.000000    0.000000
 ...... END OF PROPERTY EVALUATION ......
 CPU     0: STEP CPU TIME=     0.00 TOTAL CPU TIME=      120.9 (    2.0 MIN)
 TOTAL WALL CLOCK TIME=      155.6 SECONDS, CPU UTILIZATION IS  77.73%
             119866889  WORDS OF DYNAMIC MEMORY USED
 EXECUTION OF GAMESS TERMINATED NORMALLY Thu Jan 17 18:15:29 2019
 DDI: 305760 bytes (0.3 MB / 0 MWords) used by master data server.

 ----------------------------------------
 CPU timing information for all processes
 ========================================
 0: 113.460 + 7.604 = 121.64
 1: 111.904 + 9.364 = 121.268
 2: 111.804 + 8.164 = 119.968
 3: 111.612 + 9.368 = 120.980
 4: 112.668 + 9.248 = 121.916
 5: 112.912 + 8.556 = 121.468
 6: 110.760 + 8.228 = 118.988
 7: 112.396 + 8.468 = 120.864
 8: 111.420 + 7.860 = 119.280
 9: 111.216 + 8.212 = 119.428
 10: 111.844 + 8.260 = 120.104
 11: 111.856 + 6.464 = 118.320
 12: 0.368 + 4.604 = 4.972
 13: 0.04 + 0.00 = 0.04
 14: 0.08 + 0.00 = 0.08
 15: 0.04 + 0.04 = 0.08
 16: 0.08 + 0.00 = 0.08
 17: 0.04 + 0.04 = 0.08
 18: 0.00 + 0.08 = 0.08
 19: 0.08 + 0.00 = 0.08
 20: 0.04 + 0.00 = 0.04
 21: 0.04 + 0.04 = 0.08
 22: 0.04 + 0.00 = 0.04
 23: 0.04 + 0.00 = 0.04
 ----------------------------------------
 ddikick.x: exited gracefully.
unset echo
----- accounting info -----
Files used on the master node localhost were:
-rw-rw-r-- 1 maho maho    13429 Jan 17 18:15 ./N2.SV/2.7/N2.SV.fullCI.2.7.gamess.dat
-rw------- 1 maho maho     1813 Jan 17 18:12 ./N2.SV/2.7/N2.SV.fullCI.2.7.gamess.F05
-rw-rw-r-- 1 maho maho   180016 Jan 17 18:12 ./N2.SV/2.7/N2.SV.fullCI.2.7.gamess.F08
-rw-rw-r-- 1 maho maho     1376 Jan 17 18:12 ./N2.SV/2.7/N2.SV.fullCI.2.7.gamess.F09
-rw-rw-r-- 1 maho maho  1865040 Jan 17 18:15 ./N2.SV/2.7/N2.SV.fullCI.2.7.gamess.F10
-rw-rw-r-- 1 maho maho 38216480 Jan 17 18:15 ./N2.SV/2.7/N2.SV.fullCI.2.7.gamess.F12
-rw------- 1 maho maho     1813 Jan 17 18:12 ./N2.SV/2.7/N2.SV.fullCI.2.7.gamess.inp
-rw-rw-r-- 1 maho maho    48985 Jan 17 18:15 ./N2.SV/2.7/N2.SV.fullCI.2.7.gamess.log
ls: No match.
ls: No match.
ls: No match.
Thu Jan 17 18:15:33 JST 2019
0.0u 0.0s 2:39.02 0.0% 0+0k 0+8io 0pf+0w
