----- GAMESS execution script 'rungms' -----
This job is running on host bach.ad64.riken.go.jp
under operating system Darwin at 2019年 1月17日 木曜日 17時43分58秒 JST
Available scratch disk space (Kbyte units) at beginning of the job is
Filesystem   1024-blocks       Used Available Capacity iused      ifree %iused  Mounted on
/dev/disk2s2  1953178672 1144739276 808439396    59%  984057 4293983222    0%   /Volumes/Users
GAMESS temporary binary files will be written to ./
GAMESS supplementary output files will be written to ./
Copying input file LiH.631g/0.8/LiH.631g.fullCI.0.8.gamess.inp to your run's scratch directory...
cp LiH.631g/0.8/LiH.631g.fullCI.0.8.gamess.inp .//LiH.631g/0.8/LiH.631g.fullCI.0.8.gamess.F05
unset echo
/Volumes/Users/maho/bin/gamess//ddikick.x /Volumes/Users/maho/bin/gamess//gamess.00.x LiH.631g/0.8/LiH.631g.fullCI.0.8.gamess -ddi 1 1 bach.ad64.riken.go.jp -scr ./

 Distributed Data Interface kickoff program.
 Initiating 1 compute processes on 1 nodes to run the following command:
 /Volumes/Users/maho/bin/gamess//gamess.00.x LiH.631g/0.8/LiH.631g.fullCI.0.8.gamess 

          ******************************************************
          *         GAMESS VERSION = 18 AUG 2016 (R1)          *
          *             FROM IOWA STATE UNIVERSITY             *
          * M.W.SCHMIDT, K.K.BALDRIDGE, J.A.BOATZ, S.T.ELBERT, *
          *   M.S.GORDON, J.H.JENSEN, S.KOSEKI, N.MATSUNAGA,   *
          *          K.A.NGUYEN, S.J.SU, T.L.WINDUS,           *
          *       TOGETHER WITH M.DUPUIS, J.A.MONTGOMERY       *
          *         J.COMPUT.CHEM.  14, 1347-1363(1993)        *
          **************** 64 BIT APPLE VERSION ****************

  SINCE 1993, STUDENTS AND POSTDOCS WORKING AT IOWA STATE UNIVERSITY
  AND ALSO IN THEIR VARIOUS JOBS AFTER LEAVING ISU HAVE MADE IMPORTANT
  CONTRIBUTIONS TO THE CODE:
     IVANA ADAMOVIC, CHRISTINE AIKENS, YURI ALEXEEV, POOJA ARORA,
     ANDREY ASADCHEV, ROB BELL, PRADIPTA BANDYOPADHYAY, JONATHAN BENTZ,
     BRETT BODE, KURT BRORSEN, CALEB CARLIN, GALINA CHABAN, WEI CHEN,
     CHEOL HO CHOI, PAUL DAY, ALBERT DEFUSCO, NUWAN DESILVA, TIM DUDLEY,
     DMITRI FEDOROV, GRAHAM FLETCHER, MARK FREITAG, KURT GLAESEMANN,
     DAN KEMP, GRANT MERRILL, NORIYUKI MINEZAWA, JONATHAN MULLIN,
     TAKESHI NAGATA, SEAN NEDD, HEATHER NETZLOFF, BOSILJKA NJEGIC, RYAN OLSON,
     MIKE PAK, SPENCER PRUITT, LUKE ROSKOP, JIM SHOEMAKER, LYUDMILA SLIPCHENKO,
     TONY SMITH, SAROM SOK LEANG, JIE SONG, TETSUYA TAKETSUGU, SIMON WEBB,
     PENG XU, SOOHAENG YOO, FEDERICO ZAHARIEV

  ADDITIONAL CODE HAS BEEN PROVIDED BY COLLABORATORS IN OTHER GROUPS:
     IOWA STATE UNIVERSITY:
          JOE IVANIC, AARON WEST, LAIMUTIS BYTAUTAS, KLAUS RUEDENBERG
     UNIVERSITY OF TOKYO: KIMIHIKO HIRAO, TAKAHITO NAKAJIMA,
          TAKAO TSUNEDA, MUNEAKI KAMIYA, SUSUMU YANAGISAWA,
          KIYOSHI YAGI, MAHITO CHIBA, SEIKEN TOKURA, NAOAKI KAWAKAMI
     UNIVERSITY OF AARHUS: FRANK JENSEN
     UNIVERSITY OF IOWA: VISVALDAS KAIRYS, HUI LI
     NATIONAL INST. OF STANDARDS AND TECHNOLOGY: WALT STEVENS, DAVID GARMER
     UNIVERSITY OF PISA: BENEDETTA MENNUCCI, JACOPO TOMASI
     UNIVERSITY OF MEMPHIS: HENRY KURTZ, PRAKASHAN KORAMBATH
     UNIVERSITY OF ALBERTA: TOBY ZENG, MARIUSZ KLOBUKOWSKI
     UNIVERSITY OF NEW ENGLAND: MARK SPACKMAN
     MIE UNIVERSITY: HIROAKI UMEDA
     NAT. INST. OF ADVANCED INDUSTRIAL SCIENCE AND TECHNOLOGY: KAZUO KITAURA
     MICHIGAN STATE UNIVERSITY:
          KAROL KOWALSKI, MARTA WLOCH, JEFFREY GOUR, JESSE LUTZ,
          WEI LI, PIOTR PIECUCH
     UNIVERSITY OF SILESIA: MONIKA MUSIAL, STANISLAW KUCHARSKI
     FACULTES UNIVERSITAIRES NOTRE-DAME DE LA PAIX:
          OLIVIER QUINET, BENOIT CHAMPAGNE
     UNIVERSITY OF CALIFORNIA - SANTA BARBARA: BERNARD KIRTMAN
     INSTITUTE FOR MOLECULAR SCIENCE:
          KAZUYA ISHIMURA, MICHIO KATOUDA, AND SHIGERU NAGASE
     UNIVERSITY OF NOTRE DAME: ANNA POMOGAEVA, DAN CHIPMAN
     KYUSHU UNIVERSITY:
          HARUYUKI NAKANO,
          FENG LONG GU, JACEK KORCHOWIEC, MARCIN MAKOWSKI, AND YURIKO AOKI,
          HIROTOSHI MORI AND EISAKU MIYOSHI
     PENNSYLVANIA STATE UNIVERSITY:
          TZVETELIN IORDANOV, CHET SWALINA, JONATHAN SKONE,
          SHARON HAMMES-SCHIFFER
     WASEDA UNIVERSITY:
          MASATO KOBAYASHI, TOMOKO AKAMA, TSUGUKI TOUMA,
          TAKESHI YOSHIKAWA, YASUHIRO IKABATA, JUNJI SEINO,
          YUYA NAKAJIMA, HIROMI NAKAI
     NANJING UNIVERSITY: SHUHUA LI
     UNIVERSITY OF NEBRASKA:
          PEIFENG SU, DEJUN SI, NANDUN THELLAMUREGE, YALI WANG, HUI LI
     UNIVERSITY OF ZURICH: ROBERTO PEVERATI, KIM BALDRIDGE
     N. COPERNICUS UNIVERSITY AND JACKSON STATE UNIVERSITY:
          MARIA BARYSZ
     UNIVERSITY OF COPENHAGEN: Jimmy Kromann, CASPER STEINMANN
     TOKYO INSTITUTE OF TECHNOLOGY: HIROYA NAKATA
     NAGOYA UNIVERSITY: YOSHIO NISHIMOTO, STEPHAN IRLE
     MOSCOW STATE UNIVERSITY: VLADIMIR MIRONOV

 EXECUTION OF GAMESS BEGUN Thu Jan 17 17:43:58 2019

            ECHO OF THE FIRST FEW INPUT CARDS -
 INPUT CARD> $CONTRL SCFTYP=RHF CITYP=ALDET $END                                            
 INPUT CARD> $GUESS  GUESS=HUCKEL $END                                                      
 INPUT CARD> $BASIS GBASIS=N31 NGAUSS=6 NDFUNC=1 NPFUNC=1 $END                              
 INPUT CARD> $CIDET SZ=0 GROUP=C2V NCORE=0 NACT=20 NELS=4 $END                              
 INPUT CARD> $DATA                                                                          
 INPUT CARD>LiH...HF...6-31G* basis                                                         
 INPUT CARD>Cnv   2                                                                         
 INPUT CARD>                                                                                
 INPUT CARD>Li    3.0    0.0      0.0     0.0                                               
 INPUT CARD>H     1.0    0.0      0.0     0.8                                               
 INPUT CARD> $END                                                                           
    1000000 WORDS OF MEMORY AVAILABLE

     BASIS OPTIONS
     -------------
     GBASIS=N31          IGAUSS=       6      POLAR=POPN31  
     NDFUNC=       1     NFFUNC=       0     DIFFSP=       F
     NPFUNC=       1      DIFFS=       F     BASNAM=        


     RUN TITLE
     ---------
 LiH...HF...6-31G* basis                                                         

 THE POINT GROUP OF THE MOLECULE IS CNV     
 THE ORDER OF THE PRINCIPAL AXIS IS     2

 ATOM      ATOMIC                      COORDINATES (BOHR)
           CHARGE         X                   Y                   Z
 LI          3.0     0.0000000000        0.0000000000        0.0000000000
 H           1.0     0.0000000000        0.0000000000        1.5117807902

          INTERNUCLEAR DISTANCES (ANGS.)
          ------------------------------

                1 LI         2 H     

   1 LI      0.0000000    0.8000000 *
   2 H       0.8000000 *  0.0000000  

  * ... LESS THAN  3.000


     ATOMIC BASIS SET
     ----------------
 THE CONTRACTED PRIMITIVE FUNCTIONS HAVE BEEN UNNORMALIZED
 THE CONTRACTED BASIS FUNCTIONS ARE NOW NORMALIZED TO UNITY

  SHELL TYPE  PRIMITIVE        EXPONENT          CONTRACTION COEFFICIENT(S)

 LI        

      1   S       1           642.4189150    0.002142607810
      1   S       2            96.7985153    0.016208871501
      1   S       3            22.0911212    0.077315572504
      1   S       4             6.2010702    0.245786052013
      1   S       5             1.9351177    0.470189004025
      1   S       6             0.6367358    0.345470845019

      2   L       7             2.3249184   -0.035091745735    0.008941508043
      2   L       8             0.6324304   -0.191232843103    0.141009464046
      2   L       9             0.0790534    1.083987794916    0.945363695309

      3   L      10             0.0359620    1.000000000000    1.000000000000

      4   D      11             0.2000000    1.000000000000

 H         

      5   S      12            18.7311370    0.033494604338
      5   S      13             2.8253944    0.234726953484
      5   S      14             0.6401217    0.813757326146

      6   S      15             0.1612778    1.000000000000

      7   P      16             1.1000000    1.000000000000

 TOTAL NUMBER OF BASIS SET SHELLS             =    7
 NUMBER OF CARTESIAN GAUSSIAN BASIS FUNCTIONS =   20
 NUMBER OF ELECTRONS                          =    4
 CHARGE OF MOLECULE                           =    0
 SPIN MULTIPLICITY                            =    1
 NUMBER OF OCCUPIED ORBITALS (ALPHA)          =    2
 NUMBER OF OCCUPIED ORBITALS (BETA )          =    2
 TOTAL NUMBER OF ATOMS                        =    2
 THE NUCLEAR REPULSION ENERGY IS        1.9844146846

 THIS MOLECULE IS RECOGNIZED AS BEING LINEAR,
 ORBITAL LZ DEGENERACY TOLERANCE ETOLLZ= 1.00E-06

     $CONTRL OPTIONS
     ---------------
 SCFTYP=RHF          RUNTYP=ENERGY       EXETYP=RUN     
 MPLEVL=       0     CITYP =ALDET        CCTYP =NONE         VBTYP =NONE    
 DFTTYP=NONE         TDDFT =NONE    
 MULT  =       1     ICHARG=       0     NZVAR =       0     COORD =UNIQUE  
 PP    =NONE         RELWFN=NONE         LOCAL =NONE         NUMGRD=       F
 ISPHER=      -1     NOSYM =       0     MAXIT =      30     UNITS =ANGS    
 PLTORB=       F     MOLPLT=       F     AIMPAC=       F     FRIEND=        
 NPRINT=       7     IREST =       0     GEOM  =INPUT   
 NORMF =       0     NORMP =       0     ITOL  =      20     ICUT  =       9
 INTTYP=BEST         GRDTYP=BEST         QMTTOL= 1.0E-06

     $SYSTEM OPTIONS
     ---------------
  REPLICATED MEMORY=     1000000 WORDS (ON EVERY NODE).
 DISTRIBUTED MEMDDI=           0 MILLION WORDS IN AGGREGATE,
 MEMDDI DISTRIBUTED OVER   1 PROCESSORS IS           0 WORDS/PROCESSOR.
 TOTAL MEMORY REQUESTED ON EACH PROCESSOR=     1000000 WORDS.
 TIMLIM=      525600.00 MINUTES, OR     365.0 DAYS.
 PARALL= F  BALTYP=  DLB     KDIAG=    0  COREFL= F
 MXSEQ2=     300 MXSEQ3=     150  mem10=         0

          ----------------
          PROPERTIES INPUT
          ----------------

     MOMENTS            FIELD           POTENTIAL          DENSITY
 IEMOM =       1   IEFLD =       0   IEPOT =       0   IEDEN =       0
 WHERE =COMASS     WHERE =NUCLEI     WHERE =NUCLEI     WHERE =NUCLEI  
 OUTPUT=BOTH       OUTPUT=BOTH       OUTPUT=BOTH       OUTPUT=BOTH    
 IEMINT=       0   IEFINT=       0                     IEDINT=       0
                                                       MORB  =       0
          EXTRAPOLATION IN EFFECT
          SOSCF IN EFFECT
 ORBITAL PRINTING OPTION: NPREO=     1    20     2     1

     -------------------------------
     INTEGRAL TRANSFORMATION OPTIONS
     -------------------------------
     NWORD  =            0
     CUTOFF = 1.0E-09     MPTRAN =       0
     DIRTRF =       F     AOINTS =DUP     

          ----------------------
          INTEGRAL INPUT OPTIONS
          ----------------------
 NOPK  =       1 NORDER=       0 SCHWRZ=       F

     ------------------------------------------
     THE POINT GROUP IS CNV, NAXIS= 2, ORDER= 4
     ------------------------------------------

     DIMENSIONS OF THE SYMMETRY SUBSPACES ARE
 A1  =   11     A2  =    1     B1  =    4     B2  =    4

 ..... DONE SETTING UP THE RUN .....
 STEP CPU TIME =     0.00 TOTAL CPU TIME =        0.0 (    0.0 MIN)
 TOTAL WALL CLOCK TIME=        0.0 SECONDS, CPU UTILIZATION IS   0.00%

          ********************
          1 ELECTRON INTEGRALS
          ********************
 ...... END OF ONE-ELECTRON INTEGRALS ......
 STEP CPU TIME =     0.01 TOTAL CPU TIME =        0.0 (    0.0 MIN)
 TOTAL WALL CLOCK TIME=        0.0 SECONDS, CPU UTILIZATION IS 100.00%

          -------------
          GUESS OPTIONS
          -------------
          GUESS =HUCKEL            NORB  =       0          NORDER=       0
          MIX   =       F          PRTMO =       F          PUNMO =       F
          TOLZ  = 1.0E-08          TOLE  = 1.0E-05
          SYMDEN=       F          PURIFY=       F

 INITIAL GUESS ORBITALS GENERATED BY HUCKEL   ROUTINE.
 HUCKEL GUESS REQUIRES      4469 WORDS.

 SYMMETRIES FOR INITIAL GUESS ORBITALS FOLLOW.   BOTH SET(S).
     2 ORBITALS ARE OCCUPIED (    1 CORE ORBITALS).
     2=A1       3=A1       4=A1       5=A1       6=A1       7=A1       8=A1  
     9=A1      10=A1      11=A1      12=A2  
 ...... END OF INITIAL ORBITAL SELECTION ......
 STEP CPU TIME =     0.00 TOTAL CPU TIME =        0.0 (    0.0 MIN)
 TOTAL WALL CLOCK TIME=        0.0 SECONDS, CPU UTILIZATION IS  50.00%

                    ----------------------
                    AO INTEGRAL TECHNOLOGY
                    ----------------------
     S,P,L SHELL ROTATED AXIS INTEGRALS, REPROGRAMMED BY
        KAZUYA ISHIMURA (IMS) AND JOSE SIERRA (SYNSTAR).
     S,P,D,L SHELL ROTATED AXIS INTEGRALS PROGRAMMED BY
        KAZUYA ISHIMURA (INSTITUTE FOR MOLECULAR SCIENCE).
     S,P,D,F,G SHELL TO TOTAL QUARTET ANGULAR MOMENTUM SUM 5,
        ERIC PROGRAM BY GRAHAM FLETCHER (ELORET AND NASA ADVANCED
        SUPERCOMPUTING DIVISION, AMES RESEARCH CENTER).
     S,P,D,F,G,L SHELL GENERAL RYS QUADRATURE PROGRAMMED BY
        MICHEL DUPUIS (PACIFIC NORTHWEST NATIONAL LABORATORY).

          --------------------
          2 ELECTRON INTEGRALS
          --------------------

 THE -PK- OPTION IS OFF, THE INTEGRALS ARE NOT IN SUPERMATRIX FORM.
 STORING   15000 INTEGRALS/RECORD ON DISK, USING 12 BYTES/INTEGRAL.
 TWO ELECTRON INTEGRAL EVALUATION REQUIRES   90424 WORDS OF MEMORY.
 II,JST,KST,LST =  1  1  1  1 NREC =         1 INTLOC =    1
 II,JST,KST,LST =  2  1  1  1 NREC =         1 INTLOC =    2
 II,JST,KST,LST =  3  1  1  1 NREC =         1 INTLOC =   34
 II,JST,KST,LST =  4  1  1  1 NREC =         1 INTLOC =  214
 II,JST,KST,LST =  5  1  1  1 NREC =         1 INTLOC = 1189
 II,JST,KST,LST =  6  1  1  1 NREC =         1 INTLOC = 1867
 II,JST,KST,LST =  7  1  1  1 NREC =         1 INTLOC = 2713
 TOTAL NUMBER OF NONZERO TWO-ELECTRON INTEGRALS =                5596
          1 INTEGRAL RECORDS WERE STORED ON DISK FILE  8.
  ...... END OF TWO-ELECTRON INTEGRALS .....
 STEP CPU TIME =     0.02 TOTAL CPU TIME =        0.0 (    0.0 MIN)
 TOTAL WALL CLOCK TIME=        0.0 SECONDS, CPU UTILIZATION IS 100.00%

          --------------------------
                 RHF SCF CALCULATION
          --------------------------

     NUCLEAR ENERGY =         1.9844146846
     MAXIT =   30     NPUNCH=    2
     EXTRAP=T  DAMP=F  SHIFT=F  RSTRCT=F  DIIS=F  DEM=F  SOSCF=T
     DENSITY MATRIX CONV=  1.00E-06
     SOSCF WILL OPTIMIZE      36 ORBITAL ROTATIONS, SOGTOL=   0.250
     MEMORY REQUIRED FOR RHF ITERS=     33224 WORDS.

 ITER EX DEM     TOTAL ENERGY        E CHANGE  DENSITY CHANGE     ORB. GRAD
   1  0  0       -7.6495470722    -7.6495470722   0.329591746   0.000000000
          ---------------START SECOND ORDER SCF---------------
   2  1  0       -7.7139334019    -0.0643863298   0.149401651   0.019547334
   3  2  0       -7.7207907660    -0.0068573641   0.138816318   0.010291863
   4  3  0       -7.7231116968    -0.0023209308   0.019240118   0.002404113
   5  4  0       -7.7231855177    -0.0000738209   0.004495841   0.000641255
   6  5  0       -7.7231879670    -0.0000024493   0.000426636   0.000080278
   7  6  0       -7.7231879898    -0.0000000228   0.000068252   0.000005767
   8  7  0       -7.7231879903    -0.0000000005   0.000004322   0.000001113
   9  8  0       -7.7231879903    -0.0000000000   0.000000881   0.000000329
  10  9  0       -7.7231879903    -0.0000000000   0.000000156   0.000000023

          -----------------
          DENSITY CONVERGED
          -----------------
     TIME TO FORM FOCK OPERATORS=       0.0 SECONDS (       0.0 SEC/ITER)
     TIME TO SOLVE SCF EQUATIONS=       0.0 SECONDS (       0.0 SEC/ITER)

 FINAL RHF ENERGY IS       -7.7231879903 AFTER  10 ITERATIONS

 LZ VALUE ANALYSIS FOR THE MOS
 ----------------------------------------
 MO     1 (    1) HAS LZ(WEIGHT)= 0.00(100.0%) 
 MO     2 (    2) HAS LZ(WEIGHT)= 0.00(100.0%) 
 MO     3 (    3) HAS LZ(WEIGHT)= 0.00(100.0%) 
 MO     4 (    4) HAS LZ(WEIGHT)=-1.00( 50.0%)  1.00( 50.0%) 
 MO     5 (    4) HAS LZ(WEIGHT)=-1.00( 50.0%)  1.00( 50.0%) 
 MO     6 (    5) HAS LZ(WEIGHT)= 0.00(100.0%) 
 MO     7 (    6) HAS LZ(WEIGHT)= 0.00(100.0%) 
 MO     8 (    7) HAS LZ(WEIGHT)=-1.00( 50.0%)  1.00( 50.0%) 
 MO     9 (    7) HAS LZ(WEIGHT)=-1.00( 50.0%)  1.00( 50.0%) 
 MO    10 (    8) HAS LZ(WEIGHT)= 0.00(100.0%) 
 MO    11 (    9) HAS LZ(WEIGHT)=-1.00( 50.0%)  1.00( 50.0%) 
 MO    12 (    9) HAS LZ(WEIGHT)=-1.00( 50.0%)  1.00( 50.0%) 
 MO    13 (   10) HAS LZ(WEIGHT)=-2.00( 50.0%)  2.00( 50.0%) 
 MO    14 (   10) HAS LZ(WEIGHT)=-2.00( 50.0%)  2.00( 50.0%) 
 MO    15 (   11) HAS LZ(WEIGHT)= 0.00(100.0%) 
 MO    16 (   12) HAS LZ(WEIGHT)= 0.00(100.0%) 
 MO    17 (   13) HAS LZ(WEIGHT)= 0.00(100.0%) 
 MO    18 (   14) HAS LZ(WEIGHT)=-1.00( 50.0%)  1.00( 50.0%) 
 MO    19 (   14) HAS LZ(WEIGHT)=-1.00( 50.0%)  1.00( 50.0%) 
 MO    20 (   15) HAS LZ(WEIGHT)= 0.00(100.0%) 

          ------------
          EIGENVECTORS
          ------------

                      1          2          3          4          5
                   -2.5051    -0.3114     0.0144     0.0643     0.0643
                     A1         A1         A1         B1         B2  
    1  LI 1  S    0.988273  -0.275015  -0.066336  -0.000000  -0.000000
    2  LI 1  S   -0.019294   0.342087  -0.272456  -0.000000  -0.000000
    3  LI 1  X    0.000000  -0.000000   0.000000   0.006513  -0.000000
    4  LI 1  Y    0.000000  -0.000000   0.000000  -0.000000   0.006513
    5  LI 1  Z    0.006286   0.498162  -0.142758  -0.000000  -0.000000
    6  LI 1  S    0.005650   0.063130   1.004424  -0.000000  -0.000000
    7  LI 1  X    0.000000  -0.000000   0.000000   0.993405  -0.000000
    8  LI 1  Y    0.000000  -0.000000   0.000000  -0.000000   0.993405
    9  LI 1  Z    0.000079  -0.160594  -0.485414  -0.000000  -0.000000
   10  LI 1 XX    0.014041   0.009920   0.023569  -0.000000  -0.000000
   11  LI 1 YY    0.014041   0.009920   0.023569  -0.000000  -0.000000
   12  LI 1 ZZ    0.017933   0.062734   0.076176  -0.000000  -0.000000
   13  LI 1 XY    0.000000  -0.000000   0.000000  -0.000000  -0.000000
   14  LI 1 XZ    0.000000  -0.000000   0.000000  -0.029079  -0.000000
   15  LI 1 YZ    0.000000  -0.000000   0.000000  -0.000000  -0.029079
   16  H  2  S    0.040178   0.383172  -0.093487  -0.000000  -0.000000
   17  H  2  S   -0.019666   0.178572  -0.170735  -0.000000  -0.000000
   18  H  2  X    0.000000  -0.000000   0.000000   0.014446  -0.000000
   19  H  2  Y    0.000000  -0.000000   0.000000  -0.000000   0.014446
   20  H  2  Z   -0.008889  -0.007384   0.011982  -0.000000  -0.000000

                      6          7          8          9         10
                    0.1253     0.1897     0.2175     0.2175     0.5072
                     A1         A1         B2         B1         A1  
    1  LI 1  S   -0.015708  -0.020039   0.000000   0.000000   0.186578
    2  LI 1  S   -0.625820   2.386925   0.000000   0.000000   1.721110
    3  LI 1  X   -0.000000   0.000000   0.000000   1.671758  -0.000000
    4  LI 1  Y   -0.000000   0.000000   1.671758   0.000000  -0.000000
    5  LI 1  Z   -0.838109  -0.976421   0.000000   0.000000   0.723331
    6  LI 1  S    0.895694  -1.979958   0.000000   0.000000  -0.788144
    7  LI 1  X   -0.000000   0.000000   0.000000  -1.349287  -0.000000
    8  LI 1  Y   -0.000000   0.000000  -1.349287   0.000000  -0.000000
    9  LI 1  Z    1.381637   0.611622   0.000000   0.000000  -0.386042
   10  LI 1 XX    0.114699  -0.212015   0.000000   0.000000   0.183568
   11  LI 1 YY    0.114699  -0.212015   0.000000   0.000000   0.183568
   12  LI 1 ZZ    0.064135  -0.154343   0.000000   0.000000  -1.034085
   13  LI 1 XY   -0.000000   0.000000   0.000000   0.000000  -0.000000
   14  LI 1 XZ   -0.000000   0.000000   0.000000  -0.036539  -0.000000
   15  LI 1 YZ   -0.000000   0.000000  -0.036539   0.000000  -0.000000
   16  H  2  S   -0.089866   0.015843   0.000000   0.000000  -0.170195
   17  H  2  S   -0.169457   0.196523   0.000000   0.000000  -0.446937
   18  H  2  X   -0.000000   0.000000   0.000000   0.003840  -0.000000
   19  H  2  Y   -0.000000   0.000000   0.003840   0.000000  -0.000000
   20  H  2  Z   -0.006938  -0.054966   0.000000   0.000000   0.025831

                     11         12         13         14         15
                    0.5704     0.5704     0.5878     0.5878     0.8787
                     B2         B1         A2         A1         A1  
    1  LI 1  S    0.000000   0.000000   0.000000   0.000000   0.808992
    2  LI 1  S    0.000000   0.000000   0.000000   0.000000   7.863262
    3  LI 1  X    0.000000   0.066759   0.000000   0.000000   0.000000
    4  LI 1  Y    0.066759   0.000000   0.000000   0.000000   0.000000
    5  LI 1  Z    0.000000   0.000000   0.000000   0.000000   2.061404
    6  LI 1  S    0.000000   0.000000   0.000000   0.000000  -2.805894
    7  LI 1  X    0.000000  -0.028224   0.000000   0.000000   0.000000
    8  LI 1  Y   -0.028224   0.000000   0.000000   0.000000   0.000000
    9  LI 1  Z    0.000000   0.000000   0.000000   0.000000  -0.876759
   10  LI 1 XX    0.000000   0.000000   0.000000   0.866025  -2.064132
   11  LI 1 YY    0.000000   0.000000   0.000000  -0.866025  -2.064132
   12  LI 1 ZZ    0.000000   0.000000   0.000000   0.000000  -0.830248
   13  LI 1 XY    0.000000   0.000000   1.000000   0.000000   0.000000
   14  LI 1 XZ    0.000000   1.005394   0.000000   0.000000   0.000000
   15  LI 1 YZ    1.005394   0.000000   0.000000   0.000000   0.000000
   16  H  2  S    0.000000   0.000000   0.000000   0.000000  -0.726353
   17  H  2  S    0.000000   0.000000   0.000000   0.000000  -2.005652
   18  H  2  X    0.000000  -0.018786   0.000000   0.000000   0.000000
   19  H  2  Y   -0.018786   0.000000   0.000000   0.000000   0.000000
   20  H  2  Z    0.000000   0.000000   0.000000   0.000000   0.033017

                     16         17         18         19         20
                    1.1884     1.5007     2.5784     2.5784     2.7744
                     A1         A1         B1         B2         A1  
    1  LI 1  S    0.081038  -0.613946  -0.000000  -0.000000   0.605330
    2  LI 1  S    7.046969   1.281544  -0.000000  -0.000000   1.699860
    3  LI 1  X    0.000000   0.000000  -0.438354  -0.000000   0.000000
    4  LI 1  Y    0.000000   0.000000  -0.000000  -0.438354   0.000000
    5  LI 1  Z   -0.139480  -1.782597  -0.000000  -0.000000   0.259640
    6  LI 1  S   -2.067020  -0.258498  -0.000000  -0.000000  -0.551973
    7  LI 1  X    0.000000   0.000000   0.265046  -0.000000   0.000000
    8  LI 1  Y    0.000000   0.000000  -0.000000   0.265046   0.000000
    9  LI 1  Z    0.244607   0.454718  -0.000000  -0.000000  -0.078887
   10  LI 1 XX   -2.110920  -1.408557  -0.000000  -0.000000  -0.268530
   11  LI 1 YY   -2.110920  -1.408557  -0.000000  -0.000000  -0.268530
   12  LI 1 ZZ   -2.396373  -2.010359  -0.000000  -0.000000  -0.579769
   13  LI 1 XY    0.000000   0.000000  -0.000000  -0.000000   0.000000
   14  LI 1 XZ    0.000000   0.000000  -0.361555  -0.000000   0.000000
   15  LI 1 YZ    0.000000   0.000000  -0.000000  -0.361555   0.000000
   16  H  2  S    0.872637  -0.905621  -0.000000  -0.000000   0.238962
   17  H  2  S   -1.007625   3.734206  -0.000000  -0.000000  -0.767374
   18  H  2  X    0.000000   0.000000   1.102556  -0.000000   0.000000
   19  H  2  Y    0.000000   0.000000  -0.000000   1.102556   0.000000
   20  H  2  Z   -0.068555   0.192491  -0.000000  -0.000000   1.129636
 ...... END OF RHF CALCULATION ......
 STEP CPU TIME =     0.00 TOTAL CPU TIME =        0.0 (    0.0 MIN)
 TOTAL WALL CLOCK TIME=        0.0 SECONDS, CPU UTILIZATION IS  75.00%

     ----------------------------------------------------------------
     PROPERTY VALUES FOR THE RHF   SELF-CONSISTENT FIELD WAVEFUNCTION
     ----------------------------------------------------------------

          -----------------
          ENERGY COMPONENTS
          -----------------

         WAVEFUNCTION NORMALIZATION =       1.0000000000

                ONE ELECTRON ENERGY =     -13.7822179620
                TWO ELECTRON ENERGY =       4.0746152871
           NUCLEAR REPULSION ENERGY =       1.9844146846
                                      ------------------
                       TOTAL ENERGY =      -7.7231879903

 ELECTRON-ELECTRON POTENTIAL ENERGY =       4.0746152871
  NUCLEUS-ELECTRON POTENTIAL ENERGY =     -22.3738129475
   NUCLEUS-NUCLEUS POTENTIAL ENERGY =       1.9844146846
                                      ------------------
             TOTAL POTENTIAL ENERGY =     -16.3147829758
               TOTAL KINETIC ENERGY =       8.5915949854
                 VIRIAL RATIO (V/T) =       1.8989236578

  ...... PI ENERGY ANALYSIS ......

 ENERGY ANALYSIS:
            FOCK ENERGY=     -5.6329873919
          BARE H ENERGY=    -13.7822179620
     ELECTRONIC ENERGY =     -9.7076026770
         KINETIC ENERGY=      8.5915949854
          N-N REPULSION=      1.9844146846
           TOTAL ENERGY=     -7.7231879923
        SIGMA PART(1+2)=     -9.7076026770
               (K,V1,2)=      8.5915949854    -22.3738129475      4.0746152851
           PI PART(1+2)=      0.0000000000
               (K,V1,2)=      0.0000000000      0.0000000000      0.0000000000
  SIGMA SKELETON, ERROR=     -7.7231879923      0.0000000000
             MIXED PART= 0.00000E+00 0.00000E+00 0.00000E+00 0.00000E+00
 ...... END OF PI ENERGY ANALYSIS ......

          ---------------------------------------
          MULLIKEN AND LOWDIN POPULATION ANALYSES
          ---------------------------------------

               ----- POPULATIONS IN EACH AO -----
                             MULLIKEN      LOWDIN
              1  LI 1  S      1.99100     1.85161
              2  LI 1  S      0.45768     0.19870
              3  LI 1  X      0.00000     0.00000
              4  LI 1  Y      0.00000     0.00000
              5  LI 1  Z      0.58862     0.39500
              6  LI 1  S      0.07549     0.14101
              7  LI 1  X      0.00000     0.00000
              8  LI 1  Y      0.00000     0.00000
              9  LI 1  Z     -0.11045     0.02148
             10  LI 1 XX      0.01164     0.06229
             11  LI 1 YY      0.01164     0.06229
             12  LI 1 ZZ      0.08245     0.15418
             13  LI 1 XY      0.00000     0.00000
             14  LI 1 XZ      0.00000     0.00000
             15  LI 1 YZ      0.00000     0.00000
             16  H  2  S      0.58844     0.53468
             17  H  2  S      0.29857     0.48728
             18  H  2  X      0.00000     0.00000
             19  H  2  Y      0.00000     0.00000
             20  H  2  Z      0.00491     0.09149

          ----- MULLIKEN ATOMIC OVERLAP POPULATIONS -----
          (OFF-DIAGONAL ELEMENTS NEED TO BE MULTIPLIED BY 2)

             1           2

    1    2.7559360
    2    0.3521435   0.5397770

          TOTAL MULLIKEN AND LOWDIN ATOMIC POPULATIONS
       ATOM         MULL.POP.    CHARGE          LOW.POP.     CHARGE
    1 LI            3.108079   -0.108079         2.886556    0.113444
    2 H             0.891921    0.108079         1.113444   -0.113444

          ---------------------
          ELECTROSTATIC MOMENTS
          ---------------------

 POINT   1           X           Y           Z (BOHR)    CHARGE
                 0.000000    0.000000    0.189886        0.00 (A.U.)
         DX          DY          DZ         /D/  (DEBYE)
     0.000000    0.000000   -4.934904    4.934904
 ...... END OF PROPERTY EVALUATION ......
 STEP CPU TIME =     0.01 TOTAL CPU TIME =        0.0 (    0.0 MIN)
 TOTAL WALL CLOCK TIME=        0.0 SECONDS, CPU UTILIZATION IS 100.00%

 DETERMINANT CI OPTIONS   NRNFG   NPFLG
 INTEGRAL TRANSFORMATION    1       0
 DIAGONALIZE HAMILTONIAN    1       0
 FORM 1E- DENSITY MATRIX    1       0
 FORM 2E- DENSITY MATRIX    0       0

     --------------------------------------------------
          AMES LABORATORY DETERMINANTAL FULL CI
     PROGRAM WRITTEN BY JOE IVANIC AND KLAUS RUEDENBERG
     --------------------------------------------------

 THE POINT GROUP                  =   C2V     
 THE STATE SYMMETRY               =   A1      
 NUMBER OF CORE ORBITALS          =    0
 NUMBER OF ACTIVE ORBITALS        =   20
 NUMBER OF ALPHA ELECTRONS        =    2 (   2 ACTIVE)
 NUMBER OF BETA ELECTRONS         =    2 (   2 ACTIVE)
 NUMBER OF OCCUPIED ORBITALS      =   20
 NUMBER OF CI STATES REQUESTED    =    1
 NUMBER OF CI STARTING VECTORS    =    1
 MAX. NO. OF CI EXPANSION VECTORS =   10
 SIZE OF INITIAL CI GUESS MATRIX  =  300
 MAX. NO. OF CI ITERS/STATE       =  100
 CI DIAGONALIZATION CRITERION     = 1.00E-06
 CI PROPERTIES WILL BE FOUND FOR ROOT NUMBER   1
 1E- DENSITY MATRIX OPTIONS ARE 1

 CORRELATION ENERGY ANALYSIS      =    F

 SYMMETRIES FOR THE   0 CORE,  20 ACTIVE ARE

   ACTIVE= A1    A1    A1    B1    B2    A1    A1    B2    B1    A1  
           B2    B1    A2    A1    A1    A1    A1    B1    B2    A1  

     --------------------------------------------
     PARTIAL TWO ELECTRON INTEGRAL TRANSFORMATION
     --------------------------------------------

 NUMBER OF CORE MOLECULAR ORBITALS     =    0
 NUMBER OF OCCUPIED MOLECULAR ORBITALS =   20
 TOTAL NUMBER OF MOLECULAR ORBITALS    =   20
 TOTAL NUMBER OF ATOMIC ORBITALS       =   20
 THRESHOLD FOR KEEPING TRANSFORMED 2E- INTEGRALS = 1.000E-09
 AO INTEGRALS WILL BE READ IN FROM DISK...

 PLAN A: REQUIREMENTS FOR FULLY IN-MEMORY TRANSFORMATION:
 # OF WORDS AVAILABLE =              1000000
 # OF WORDS NEEDED    =               146042

 CHOOSING IN MEMORY PARTIAL TRANSFORMATION...
 TOTAL NUMBER OF TRANSFORMED 2E- INTEGRALS KEPT =         5962
 ... END OF INTEGRAL TRANSFORMATION ...
 STEP CPU TIME =     0.00 TOTAL CPU TIME =        0.0 (    0.0 MIN)
 TOTAL WALL CLOCK TIME=        0.0 SECONDS, CPU UTILIZATION IS  80.00%

     --------------------------------------------------
          AMES LABORATORY DETERMINANTAL FULL CI
     PROGRAM WRITTEN BY JOE IVANIC AND KLAUS RUEDENBERG
     --------------------------------------------------

 THE NUMBER OF DETERMINANTS HAVING SPACE SYMMETRY A1 
 IN POINT GROUP C2V  WITH SZ=  0.0 IS           9826
 THE DETERMINANT FULL CI REQUIRES          451749 WORDS
 INITIAL CI VECTOR GUESS TIME  :          0.0
 INITIAL FULL CI ITERATION TIME:          0.0

 ITERATION      ENERGY           GRADIENT
     0       -7.7542434419     0.23401183
     1       -7.7632351560     0.02606055
     2       -7.7634077929     0.00653826
     3       -7.7634235169     0.00223065
     4       -7.7634270805     0.00119640
     5       -7.7634276613     0.00035743
     6       -7.7634277133     0.00011479
     7       -7.7634277183     0.00003475
     8       -7.7634277187     0.00001012
     9       -7.7634277187     0.00000216
    10       -7.7634277187     0.00000051

 CONVERGED STATE    1 ENERGY=       -7.7634277187 IN   10 ITERS

 ALL STATES CONVERGED.

 CI EIGENVECTORS WILL BE LABELED IN GROUP=C2V     
 PRINTING CI COEFFICIENTS LARGER THAN 5.000E-02

 STATE   1  ENERGY=        -7.7634277187  S=  0.00  SZ=  0.00  SPACE SYM=A1  

        ALPHA         |        BETA          | CI COEFFICIENT
----------------------|----------------------|---------------
 11000000000000000000 | 11000000000000000000 |   0.9852506745
 ..... DONE WITH DETERMINANT CI COMPUTATION .....
 STEP CPU TIME =     0.26 TOTAL CPU TIME =        0.3 (    0.0 MIN)
 TOTAL WALL CLOCK TIME=        0.4 SECONDS, CPU UTILIZATION IS  78.95%

     ---------------------------
     ONE PARTICLE DENSITY MATRIX
     ---------------------------

 DENSITY MATRIX WILL BE SAVED FOR   1-TH STATE WITH S= 0.00

 CI EIGENSTATE   1 TOTAL ENERGY =       -7.7634277187

          NATURAL ORBITALS IN ATOMIC ORBITAL BASIS
          ----------------------------------------

                      1          2          3          4          5
                    1.9984     1.9448     0.0313     0.0105     0.0105
                     A1         A1         A1         B2         B1  
    1  LI 1  S    0.999992  -0.220553  -0.199184  -0.000000  -0.000000
    2  LI 1  S   -0.037533   0.340363  -0.613456  -0.000000  -0.000000
    3  LI 1  X   -0.000000   0.000000   0.000000  -0.000000   0.930988
    4  LI 1  Y   -0.000000   0.000000   0.000000   0.930988  -0.000000
    5  LI 1  Z   -0.027597   0.485305  -0.398368  -0.000000  -0.000000
    6  LI 1  S    0.000187   0.085399  -0.332466  -0.000000  -0.000000
    7  LI 1  X   -0.000000   0.000000   0.000000  -0.000000  -0.333931
    8  LI 1  Y   -0.000000   0.000000   0.000000  -0.333931  -0.000000
    9  LI 1  Z    0.011316  -0.152419  -0.022748  -0.000000  -0.000000
   10  LI 1 XX    0.012017   0.014034   0.009758  -0.000000  -0.000000
   11  LI 1 YY    0.012017   0.014034   0.009758  -0.000000  -0.000000
   12  LI 1 ZZ    0.011120   0.059567   0.080222  -0.000000  -0.000000
   13  LI 1 XY   -0.000000   0.000000   0.000000  -0.000000  -0.000000
   14  LI 1 XZ   -0.000000   0.000000   0.000000  -0.000000   0.504681
   15  LI 1 YZ   -0.000000   0.000000   0.000000   0.504681  -0.000000
   16  H  2  S    0.018937   0.397518   0.937196  -0.000000  -0.000000
   17  H  2  S   -0.022324   0.156729   0.123045  -0.000000  -0.000000
   18  H  2  X   -0.000000   0.000000   0.000000  -0.000000   0.281314
   19  H  2  Y   -0.000000   0.000000   0.000000   0.281314  -0.000000
   20  H  2  Z   -0.009271  -0.008688  -0.015462  -0.000000  -0.000000

                      6          7          8          9         10
                    0.0024     0.0010     0.0003     0.0002     0.0002
                     A1         A1         A1         B2         B1  
    1  LI 1  S    0.622290  -0.708373   0.332420  -0.000000  -0.000000
    2  LI 1  S   -0.665038  -1.056252   1.285050  -0.000000  -0.000000
    3  LI 1  X   -0.000000   0.000000   0.000000  -0.000000  -0.702652
    4  LI 1  Y   -0.000000   0.000000   0.000000  -0.702652  -0.000000
    5  LI 1  Z    1.258543  -2.405213  -0.593574  -0.000000  -0.000000
    6  LI 1  S    0.156576   0.240218  -0.139024  -0.000000  -0.000000
    7  LI 1  X   -0.000000   0.000000   0.000000  -0.000000   0.156108
    8  LI 1  Y   -0.000000   0.000000   0.000000   0.156108  -0.000000
    9  LI 1  Z   -0.454003   0.877581   0.424770  -0.000000  -0.000000
   10  LI 1 XX    0.148436  -0.683718  -0.026757  -0.000000  -0.000000
   11  LI 1 YY    0.148436  -0.683718  -0.026757  -0.000000  -0.000000
   12  LI 1 ZZ    1.164503  -0.947056  -0.666194  -0.000000  -0.000000
   13  LI 1 XY   -0.000000   0.000000   0.000000  -0.000000  -0.000000
   14  LI 1 XZ   -0.000000   0.000000   0.000000  -0.000000  -0.310208
   15  LI 1 YZ   -0.000000   0.000000   0.000000  -0.310208  -0.000000
   16  H  2  S   -0.393712  -0.736089   0.662086  -0.000000  -0.000000
   17  H  2  S   -0.966427   3.850168  -0.851630  -0.000000  -0.000000
   18  H  2  X   -0.000000   0.000000   0.000000  -0.000000   1.017105
   19  H  2  Y   -0.000000   0.000000   0.000000   1.017105  -0.000000
   20  H  2  Z    0.617865   0.205885   0.827663  -0.000000  -0.000000

                     11         12         13         14         15
                    0.0002     0.0000     0.0000     0.0000     0.0000
                     A1         A1         A2         B2         B1  
    1  LI 1  S   -0.219649  -0.000000   0.000000   0.000000   0.000000
    2  LI 1  S   -0.660125  -0.000000   0.000000   0.000000   0.000000
    3  LI 1  X   -0.000000  -0.000000   0.000000   0.000000   1.139019
    4  LI 1  Y   -0.000000  -0.000000   0.000000   1.139019   0.000000
    5  LI 1  Z   -0.661507  -0.000000   0.000000   0.000000   0.000000
    6  LI 1  S    1.440878  -0.000000   0.000000   0.000000   0.000000
    7  LI 1  X   -0.000000  -0.000000   0.000000   0.000000  -1.066755
    8  LI 1  Y   -0.000000  -0.000000   0.000000  -1.066755   0.000000
    9  LI 1  Z    0.850354  -0.000000   0.000000   0.000000   0.000000
   10  LI 1 XX   -0.454493   0.866025   0.000000   0.000000   0.000000
   11  LI 1 YY   -0.454493  -0.866025   0.000000   0.000000   0.000000
   12  LI 1 ZZ    0.094049  -0.000000   0.000000   0.000000   0.000000
   13  LI 1 XY   -0.000000  -0.000000   1.000000   0.000000   0.000000
   14  LI 1 XZ   -0.000000  -0.000000   0.000000   0.000000  -0.723067
   15  LI 1 YZ   -0.000000  -0.000000   0.000000  -0.723067   0.000000
   16  H  2  S    0.353564  -0.000000   0.000000   0.000000   0.000000
   17  H  2  S   -0.222542  -0.000000   0.000000   0.000000   0.000000
   18  H  2  X   -0.000000  -0.000000   0.000000   0.000000   0.126911
   19  H  2  Y   -0.000000  -0.000000   0.000000   0.126911   0.000000
   20  H  2  Z   -0.258614  -0.000000   0.000000   0.000000   0.000000

                     16         17         18         19         20
                    0.0000     0.0000     0.0000     0.0000     0.0000
                     A1         A1         B1         B2         A1  
    1  LI 1  S    0.516294   0.219617   0.000000   0.000000   0.213749
    2  LI 1  S    8.095098   5.953461   0.000000   0.000000   4.489152
    3  LI 1  X   -0.000000  -0.000000  -0.577586   0.000000  -0.000000
    4  LI 1  Y   -0.000000  -0.000000   0.000000  -0.577586  -0.000000
    5  LI 1  Z    0.521055   0.452222   0.000000   0.000000   0.965215
    6  LI 1  S   -3.539752  -1.745079   0.000000   0.000000  -1.001504
    7  LI 1  X   -0.000000  -0.000000   1.266740   0.000000  -0.000000
    8  LI 1  Y   -0.000000  -0.000000   0.000000   1.266740  -0.000000
    9  LI 1  Z    0.305413  -0.101895   0.000000   0.000000  -1.314399
   10  LI 1 XX   -1.919473  -2.001660   0.000000   0.000000  -1.573907
   11  LI 1 YY   -1.919473  -2.001660   0.000000   0.000000  -1.573907
   12  LI 1 ZZ   -1.007323  -2.705074   0.000000   0.000000  -0.932224
   13  LI 1 XY   -0.000000  -0.000000   0.000000   0.000000  -0.000000
   14  LI 1 XZ   -0.000000  -0.000000  -0.519579   0.000000  -0.000000
   15  LI 1 YZ   -0.000000  -0.000000   0.000000  -0.519579  -0.000000
   16  H  2  S   -0.000898  -0.083641   0.000000   0.000000  -0.238515
   17  H  2  S   -1.731754   0.219785   0.000000   0.000000  -0.528743
   18  H  2  X   -0.000000  -0.000000   0.294039   0.000000  -0.000000
   19  H  2  Y   -0.000000  -0.000000   0.000000   0.294039  -0.000000
   20  H  2  Z   -0.133854   0.355502   0.000000   0.000000   0.046710
 ..... DONE WITH ONE PARTICLE DENSITY MATRIX .....
 STEP CPU TIME =     0.00 TOTAL CPU TIME =        0.3 (    0.0 MIN)
 TOTAL WALL CLOCK TIME=        0.4 SECONDS, CPU UTILIZATION IS  76.92%

     --------------------------------------------------------
     ALDET CI PROPERTIES...FOR THE WAVEFUNCTION OF STATE    1
               USING THE EXPECTATION VALUE DENSITY
     --------------------------------------------------------

          -----------------
          ENERGY COMPONENTS
          -----------------

         WAVEFUNCTION NORMALIZATION =       1.0000000000

                ONE ELECTRON ENERGY =     -13.7363238508
                TWO ELECTRON ENERGY =       3.9884814475
           NUCLEAR REPULSION ENERGY =       1.9844146846
                                      ------------------
                       TOTAL ENERGY =      -7.7634277187

 ELECTRON-ELECTRON POTENTIAL ENERGY =       3.9884814475
  NUCLEUS-ELECTRON POTENTIAL ENERGY =     -22.3414994019
   NUCLEUS-NUCLEUS POTENTIAL ENERGY =       1.9844146846
                                      ------------------
             TOTAL POTENTIAL ENERGY =     -16.3686032697
               TOTAL KINETIC ENERGY =       8.6051755510
                 VIRIAL RATIO (V/T) =       1.9021812132

          ---------------------------------------
          MULLIKEN AND LOWDIN POPULATION ANALYSES
          ---------------------------------------

               ----- POPULATIONS IN EACH AO -----
                             MULLIKEN      LOWDIN
              1  LI 1  S      1.98552     1.84806
              2  LI 1  S      0.46104     0.20398
              3  LI 1  X      0.00710     0.00520
              4  LI 1  Y      0.00710     0.00520
              5  LI 1  Z      0.54949     0.36784
              6  LI 1  S      0.10610     0.15784
              7  LI 1  X     -0.00152     0.00018
              8  LI 1  Y     -0.00152     0.00018
              9  LI 1  Z     -0.10040     0.02146
             10  LI 1 XX      0.01400     0.06516
             11  LI 1 YY      0.01400     0.06516
             12  LI 1 ZZ      0.07522     0.14851
             13  LI 1 XY      0.00004     0.00004
             14  LI 1 XZ      0.00320     0.00304
             15  LI 1 YZ      0.00320     0.00304
             16  H  2  S      0.60811     0.54508
             17  H  2  S      0.25874     0.46259
             18  H  2  X      0.00201     0.00236
             19  H  2  Y      0.00201     0.00236
             20  H  2  Z      0.00657     0.09270

          ----- MULLIKEN ATOMIC OVERLAP POPULATIONS -----
          (OFF-DIAGONAL ELEMENTS NEED TO BE MULTIPLIED BY 2)

             1           2

    1    2.8120965
    2    0.3104646   0.5669742

          TOTAL MULLIKEN AND LOWDIN ATOMIC POPULATIONS
       ATOM         MULL.POP.    CHARGE          LOW.POP.     CHARGE
    1 LI            3.122561   -0.122561         2.894893    0.105107
    2 H             0.877439    0.122561         1.105107   -0.105107

          ---------------------
          ELECTROSTATIC MOMENTS
          ---------------------

 POINT   1           X           Y           Z (BOHR)    CHARGE
                 0.000000    0.000000    0.189886       -0.00 (A.U.)
         DX          DY          DZ         /D/  (DEBYE)
     0.000000    0.000000   -4.794633    4.794633
 ...... END OF PROPERTY EVALUATION ......
 STEP CPU TIME =     0.01 TOTAL CPU TIME =        0.3 (    0.0 MIN)
 TOTAL WALL CLOCK TIME=        0.4 SECONDS, CPU UTILIZATION IS  79.49%
               580000  WORDS OF DYNAMIC MEMORY USED
 EXECUTION OF GAMESS TERMINATED NORMALLY Thu Jan 17 17:43:58 2019
 DDI: 263640 bytes (0.3 MB / 0 MWords) used by master data server.

 ----------------------------------------
 CPU timing information for all processes
 ========================================
 0: 0.249 + 0.70 = 0.319
 1: 0.11 + 0.57 = 0.68
 ----------------------------------------
 ddikick.x: exited gracefully.
unset echo
----- accounting info -----
Files used on the master node bach.ad64.riken.go.jp were:
-rw-------  1 maho  staff      280  1 17 17:43 .//LiH.631g/0.8/LiH.631g.fullCI.0.8.gamess.F05
-rw-r--r--  1 maho  staff   180016  1 17 17:43 .//LiH.631g/0.8/LiH.631g.fullCI.0.8.gamess.F08
-rw-r--r--  1 maho  staff   181704  1 17 17:43 .//LiH.631g/0.8/LiH.631g.fullCI.0.8.gamess.F09
-rw-r--r--  1 maho  staff  1832320  1 17 17:44 .//LiH.631g/0.8/LiH.631g.fullCI.0.8.gamess.F10
-rw-r--r--  1 maho  staff    78640  1 17 17:43 .//LiH.631g/0.8/LiH.631g.fullCI.0.8.gamess.F12
-rw-r--r--  1 maho  staff    14499  1 17 17:43 .//LiH.631g/0.8/LiH.631g.fullCI.0.8.gamess.dat
-rw-------  1 maho  staff      280  1 17 17:43 .//LiH.631g/0.8/LiH.631g.fullCI.0.8.gamess.inp
-rw-r--r--  1 maho  staff    42508  1 17 17:44 .//LiH.631g/0.8/LiH.631g.fullCI.0.8.gamess.log
ls: No match.
ls: No match.
ls: No match.
2019年 1月17日 木曜日 17時44分01秒 JST
0.375u 0.239s 0:03.62 16.5%	0+0k 0+1io 0pf+0w
