----- GAMESS execution script 'rungms' -----
This job is running on host localhost
under operating system Linux at Thu Jan 17 18:15:42 JST 2019
Available scratch disk space (Kbyte units) at beginning of the job is
Filesystem     1K-blocks      Used Available Use% Mounted on
/dev/sda1      895286904 141744380 708041496  17% /
GAMESS temporary binary files will be written to .
GAMESS supplementary output files will be written to .
Copying input file N2.SV/2.8/N2.SV.fullCI.2.8.gamess.inp to your run's scratch directory...
cp N2.SV/2.8/N2.SV.fullCI.2.8.gamess.inp ./N2.SV/2.8/N2.SV.fullCI.2.8.gamess.F05
unset echo
/work/pubchem/pm6/pkg/gamess_intel/ddikick.x /work/pubchem/pm6/pkg/gamess_intel/gamess.00.x N2.SV/2.8/N2.SV.fullCI.2.8.gamess -ddi 12 12 localhost localhost localhost localhost localhost localhost localhost localhost localhost localhost localhost localhost -scr .

 Distributed Data Interface kickoff program.
 Initiating 12 compute processes on 12 nodes to run the following command:
 /work/pubchem/pm6/pkg/gamess_intel/gamess.00.x N2.SV/2.8/N2.SV.fullCI.2.8.gamess 

          ******************************************************
          *         GAMESS VERSION =  5 DEC 2014 (R1)          *
          *             FROM IOWA STATE UNIVERSITY             *
          * M.W.SCHMIDT, K.K.BALDRIDGE, J.A.BOATZ, S.T.ELBERT, *
          *   M.S.GORDON, J.H.JENSEN, S.KOSEKI, N.MATSUNAGA,   *
          *          K.A.NGUYEN, S.J.SU, T.L.WINDUS,           *
          *       TOGETHER WITH M.DUPUIS, J.A.MONTGOMERY       *
          *         J.COMPUT.CHEM.  14, 1347-1363(1993)        *
          **************** 64 BIT INTEL VERSION ****************

  SINCE 1993, STUDENTS AND POSTDOCS WORKING AT IOWA STATE UNIVERSITY
  AND ALSO IN THEIR VARIOUS JOBS AFTER LEAVING ISU HAVE MADE IMPORTANT
  CONTRIBUTIONS TO THE CODE:
     IVANA ADAMOVIC, CHRISTINE AIKENS, YURI ALEXEEV, POOJA ARORA,
     ANDREY ASADCHEV, ROB BELL, PRADIPTA BANDYOPADHYAY, JONATHAN BENTZ,
     BRETT BODE, KURT BRORSEN, CALEB CARLIN, GALINA CHABAN, WEI CHEN,
     CHEOL HO CHOI, PAUL DAY, ALBERT DEFUSCO, NUWAN DESILVA, TIM DUDLEY,
     DMITRI FEDOROV, GRAHAM FLETCHER, MARK FREITAG, KURT GLAESEMANN,
     DAN KEMP, GRANT MERRILL, NORIYUKI MINEZAWA, JONATHAN MULLIN,
     TAKESHI NAGATA, SEAN NEDD, HEATHER NETZLOFF, BOSILJKA NJEGIC, RYAN OLSON,
     MIKE PAK, SPENCER PRUITT, LUKE ROSKOP, JIM SHOEMAKER, LYUDMILA SLIPCHENKO,
     TONY SMITH, SAROM SOK, JIE SONG, TETSUYA TAKETSUGU, SIMON WEBB,
     PENG XU, SOOHAENG YOO, FEDERICO ZAHARIEV

  ADDITIONAL CODE HAS BEEN PROVIDED BY COLLABORATORS IN OTHER GROUPS:
     IOWA STATE UNIVERSITY:
          JOE IVANIC, AARON WEST, LAIMUTIS BYTAUTAS, KLAUS RUEDENBERG
     UNIVERSITY OF TOKYO: KIMIHIKO HIRAO, TAKAHITO NAKAJIMA,
          TAKAO TSUNEDA, MUNEAKI KAMIYA, SUSUMU YANAGISAWA,
          KIYOSHI YAGI, MAHITO CHIBA, SEIKEN TOKURA, NAOAKI KAWAKAMI
     UNIVERSITY OF AARHUS: FRANK JENSEN
     UNIVERSITY OF IOWA: VISVALDAS KAIRYS, HUI LI
     NATIONAL INST. OF STANDARDS AND TECHNOLOGY: WALT STEVENS, DAVID GARMER
     UNIVERSITY OF PISA: BENEDETTA MENNUCCI, JACOPO TOMASI
     UNIVERSITY OF MEMPHIS: HENRY KURTZ, PRAKASHAN KORAMBATH
     UNIVERSITY OF ALBERTA: TOBY ZENG, MARIUSZ KLOBUKOWSKI
     UNIVERSITY OF NEW ENGLAND: MARK SPACKMAN
     MIE UNIVERSITY: HIROAKI UMEDA
     NAT. INST. OF ADVANCED INDUSTRIAL SCIENCE AND TECHNOLOGY: KAZUO KITAURA
     MICHIGAN STATE UNIVERSITY:
          KAROL KOWALSKI, MARTA WLOCH, JEFFREY GOUR, JESSE LUTZ,
          WEI LI, PIOTR PIECUCH
     UNIVERSITY OF SILESIA: MONIKA MUSIAL, STANISLAW KUCHARSKI
     FACULTES UNIVERSITAIRES NOTRE-DAME DE LA PAIX:
          OLIVIER QUINET, BENOIT CHAMPAGNE
     UNIVERSITY OF CALIFORNIA - SANTA BARBARA: BERNARD KIRTMAN
     INSTITUTE FOR MOLECULAR SCIENCE:
          KAZUYA ISHIMURA, MICHIO KATOUDA, AND SHIGERU NAGASE
     UNIVERSITY OF NOTRE DAME: ANNA POMOGAEVA, DAN CHIPMAN
     KYUSHU UNIVERSITY:
          HARUYUKI NAKANO,
          FENG LONG GU, JACEK KORCHOWIEC, MARCIN MAKOWSKI, AND YURIKO AOKI,
          HIROTOSHI MORI AND EISAKU MIYOSHI
     PENNSYLVANIA STATE UNIVERSITY:
          TZVETELIN IORDANOV, CHET SWALINA, JONATHAN SKONE,
          SHARON HAMMES-SCHIFFER
     WASEDA UNIVERSITY:
          MASATO KOBAYASHI, TOMOKO AKAMA, TSUGUKI TOUMA,
          TAKESHI YOSHIKAWA, YASUHIRO IKABATA, HIROMI NAKAI
     NANJING UNIVERSITY: SHUHUA LI
     UNIVERSITY OF NEBRASKA:
          PEIFENG SU, DEJUN SI, NANDUN THELLAMUREGE, YALI WANG, HUI LI
     UNIVERSITY OF ZURICH: ROBERTO PEVERATI, KIM BALDRIDGE
     N. COPERNICUS UNIVERSITY AND JACKSON STATE UNIVERSITY:
          MARIA BARYSZ
     UNIVERSITY OF COPENHAGEN: CASPER STEINMANN
     TOKYO INSTITUTE OF TECHNOLOGY: HIROYA NAKATA
     NAGOYA UNIVERSITY: YOSHIO NISHIMOTO, STEPHAN IRLE


 PARALLEL VERSION RUNNING ON       12 PROCESSORS IN       12 NODES.

 EXECUTION OF GAMESS BEGUN Thu Jan 17 18:15:42 2019

            ECHO OF THE FIRST FEW INPUT CARDS -
 INPUT CARD> $CONTRL SCFTYP=RHF CITYP=ALDET $END                                            
 INPUT CARD> $GUESS GUESS=HUCKEL $END                                                       
 INPUT CARD> $SYSTEM MWORDS=300 $END                                                        
 INPUT CARD> $CIDET SZ=0 GROUP=C2V NCORE=2 NACT=16 NELS=10 NSTGSS=6 $END                    
 INPUT CARD> $DATA                                                                          
 INPUT CARD>N2...HF...Double-zeta basis                                                     
 INPUT CARD>Cnv   2                                                                         
 INPUT CARD>                                                                                
 INPUT CARD>N     7.0    0.0      0.0     0.0                                               
 INPUT CARD>S   7                                                                           
 INPUT CARD>  1   5909.0000000              0.0011900                                       
 INPUT CARD>  2    887.5000000              0.0090990                                       
 INPUT CARD>  3    204.7000000              0.0441450                                       
 INPUT CARD>  4     59.8400000              0.1504640                                       
 INPUT CARD>  5     20.0000000              0.3567410                                       
 INPUT CARD>  6      7.1930000              0.4465330                                       
 INPUT CARD>  7      2.6860000              0.1456030                                       
 INPUT CARD>S   2                                                                           
 INPUT CARD>  1      7.1930000             -0.1604050                                       
 INPUT CARD>  2      0.7000000              1.0582150                                       
 INPUT CARD>S   1                                                                           
 INPUT CARD>  1      0.2133000              1.0000000                                       
 INPUT CARD>P   4                                                                           
 INPUT CARD>  1     26.7900000              0.0182540                                       
 INPUT CARD>  2      5.9560000              0.1164610                                       
 INPUT CARD>  3      1.7070000              0.3901780                                       
 INPUT CARD>  4      0.5314000              0.6371020                                       
 INPUT CARD>P   1                                                                           
 INPUT CARD>  1      0.1654000              1.0000000                                       
 INPUT CARD>                                                                                
 INPUT CARD>N     7.0    0.0      0.0     2.8                                               
 INPUT CARD>S   7                                                                           
 INPUT CARD>  1   5909.0000000              0.0011900                                       
 INPUT CARD>  2    887.5000000              0.0090990                                       
 INPUT CARD>  3    204.7000000              0.0441450                                       
 INPUT CARD>  4     59.8400000              0.1504640                                       
 INPUT CARD>  5     20.0000000              0.3567410                                       
 INPUT CARD>  6      7.1930000              0.4465330                                       
 INPUT CARD>  7      2.6860000              0.1456030                                       
 INPUT CARD>S   2                                                                           
 INPUT CARD>  1      7.1930000             -0.1604050                                       
 INPUT CARD>  2      0.7000000              1.0582150                                       
 INPUT CARD>S   1                                                                           
 INPUT CARD>  1      0.2133000              1.0000000                                       
 INPUT CARD>P   4                                                                           
 INPUT CARD>  1     26.7900000              0.0182540                                       
 INPUT CARD>  2      5.9560000              0.1164610                                       
 INPUT CARD>  3      1.7070000              0.3901780                                       
 INPUT CARD>  4      0.5314000              0.6371020                                       
 INPUT CARD>P   1                                                                           
  300000000 WORDS OF MEMORY AVAILABLE


     RUN TITLE
     ---------
 N2...HF...Double-zeta basis                                                     

 THE POINT GROUP OF THE MOLECULE IS CNV     
 THE ORDER OF THE PRINCIPAL AXIS IS     2

 ATOM      ATOMIC                      COORDINATES (BOHR)
           CHARGE         X                   Y                   Z
 N           7.0     0.0000000000        0.0000000000        0.0000000000
 N           7.0     0.0000000000        0.0000000000        5.2912327656

          INTERNUCLEAR DISTANCES (ANGS.)
          ------------------------------

                1 N          2 N     

   1 N       0.0000000    2.8000000 *
   2 N       2.8000000 *  0.0000000  

  * ... LESS THAN  3.000


     ATOMIC BASIS SET
     ----------------
 THE CONTRACTED PRIMITIVE FUNCTIONS HAVE BEEN UNNORMALIZED
 THE CONTRACTED BASIS FUNCTIONS ARE NOW NORMALIZED TO UNITY

  SHELL TYPE  PRIMITIVE        EXPONENT          CONTRACTION COEFFICIENT(S)

 N         

      1   S       1          5909.0000000    0.001189999548
      1   S       2           887.5000000    0.009098996542
      1   S       3           204.7000000    0.044144983225
      1   S       4            59.8400000    0.150463942825
      1   S       5            20.0000000    0.356740864442
      1   S       6             7.1930000    0.446532830321
      1   S       7             2.6860000    0.145602944672

      2   S       8             7.1930000   -0.160405033446
      2   S       9             0.7000000    1.058215220651

      3   S      10             0.2133000    1.000000000000

      4   P      11            26.7900000    0.018253998243
      4   P      12             5.9560000    0.116460988791
      4   P      13             1.7070000    0.390177962446
      4   P      14             0.5314000    0.637101938680

      5   P      15             0.1654000    1.000000000000

 N         

      6   S      16          5909.0000000    0.001189999548
      6   S      17           887.5000000    0.009098996542
      6   S      18           204.7000000    0.044144983225
      6   S      19            59.8400000    0.150463942825
      6   S      20            20.0000000    0.356740864442
      6   S      21             7.1930000    0.446532830321
      6   S      22             2.6860000    0.145602944672

      7   S      23             7.1930000   -0.160405033446
      7   S      24             0.7000000    1.058215220651

      8   S      25             0.2133000    1.000000000000

      9   P      26            26.7900000    0.018253998243
      9   P      27             5.9560000    0.116460988791
      9   P      28             1.7070000    0.390177962446
      9   P      29             0.5314000    0.637101938680

     10   P      30             0.1654000    1.000000000000

 TOTAL NUMBER OF BASIS SET SHELLS             =   10
 NUMBER OF CARTESIAN GAUSSIAN BASIS FUNCTIONS =   18
 NUMBER OF ELECTRONS                          =   14
 CHARGE OF MOLECULE                           =    0
 SPIN MULTIPLICITY                            =    1
 NUMBER OF OCCUPIED ORBITALS (ALPHA)          =    7
 NUMBER OF OCCUPIED ORBITALS (BETA )          =    7
 TOTAL NUMBER OF ATOMS                        =    2
 THE NUCLEAR REPULSION ENERGY IS        9.2606018617

 THIS MOLECULE IS RECOGNIZED AS BEING LINEAR,
 ORBITAL LZ DEGENERACY TOLERANCE ETOLLZ= 1.00E-06

     $CONTRL OPTIONS
     ---------------
 SCFTYP=RHF          RUNTYP=ENERGY       EXETYP=RUN     
 MPLEVL=       0     CITYP =ALDET        CCTYP =NONE         VBTYP =NONE    
 DFTTYP=NONE         TDDFT =NONE    
 MULT  =       1     ICHARG=       0     NZVAR =       0     COORD =UNIQUE  
 PP    =NONE         RELWFN=NONE         LOCAL =NONE         NUMGRD=       F
 ISPHER=      -1     NOSYM =       0     MAXIT =      30     UNITS =ANGS    
 PLTORB=       F     MOLPLT=       F     AIMPAC=       F     FRIEND=        
 NPRINT=       7     IREST =       0     GEOM  =INPUT   
 NORMF =       0     NORMP =       0     ITOL  =      20     ICUT  =       9
 INTTYP=BEST         GRDTYP=BEST         QMTTOL= 1.0E-06

     $SYSTEM OPTIONS
     ---------------
  REPLICATED MEMORY=   300000000 WORDS (ON EVERY NODE).
 DISTRIBUTED MEMDDI=           0 MILLION WORDS IN AGGREGATE,
 MEMDDI DISTRIBUTED OVER  12 PROCESSORS IS           0 WORDS/PROCESSOR.
 TOTAL MEMORY REQUESTED ON EACH PROCESSOR=   300000000 WORDS.
 TIMLIM=      525600.00 MINUTES, OR     365.0 DAYS.
 PARALL= T  BALTYP=  DLB     KDIAG=    0  COREFL= F
 MXSEQ2=     300 MXSEQ3=     150  mem10=         0

          ----------------
          PROPERTIES INPUT
          ----------------

     MOMENTS            FIELD           POTENTIAL          DENSITY
 IEMOM =       1   IEFLD =       0   IEPOT =       0   IEDEN =       0
 WHERE =COMASS     WHERE =NUCLEI     WHERE =NUCLEI     WHERE =NUCLEI  
 OUTPUT=BOTH       OUTPUT=BOTH       OUTPUT=BOTH       OUTPUT=BOTH    
 IEMINT=       0   IEFINT=       0                     IEDINT=       0
                                                       MORB  =       0
          EXTRAPOLATION IN EFFECT
          SOSCF IN EFFECT
 ORBITAL PRINTING OPTION: NPREO=     1    18     2     1

     -------------------------------
     INTEGRAL TRANSFORMATION OPTIONS
     -------------------------------
     NWORD  =            0
     CUTOFF = 1.0E-09     MPTRAN =       0
     DIRTRF =       F     AOINTS =DUP     

          ----------------------
          INTEGRAL INPUT OPTIONS
          ----------------------
 NOPK  =       1 NORDER=       0 SCHWRZ=       F

     ------------------------------------------
     THE POINT GROUP IS CNV, NAXIS= 2, ORDER= 4
     ------------------------------------------

     DIMENSIONS OF THE SYMMETRY SUBSPACES ARE
 A1  =   10     A2  =    0     B1  =    4     B2  =    4

 ..... DONE SETTING UP THE RUN .....
 CPU     0: STEP CPU TIME=     0.01 TOTAL CPU TIME=        0.0 (    0.0 MIN)
 TOTAL WALL CLOCK TIME=        0.0 SECONDS, CPU UTILIZATION IS  50.00%

          ********************
          1 ELECTRON INTEGRALS
          ********************
 ...... END OF ONE-ELECTRON INTEGRALS ......
 CPU     0: STEP CPU TIME=     0.01 TOTAL CPU TIME=        0.0 (    0.0 MIN)
 TOTAL WALL CLOCK TIME=        0.1 SECONDS, CPU UTILIZATION IS  33.33%

          -------------
          GUESS OPTIONS
          -------------
          GUESS =HUCKEL            NORB  =       0          NORDER=       0
          MIX   =       F          PRTMO =       F          PUNMO =       F
          TOLZ  = 1.0E-08          TOLE  = 1.0E-05
          SYMDEN=       F          PURIFY=       F

 INITIAL GUESS ORBITALS GENERATED BY HUCKEL   ROUTINE.
 HUCKEL GUESS REQUIRES      4352 WORDS.

 SYMMETRIES FOR INITIAL GUESS ORBITALS FOLLOW.   BOTH SET(S).
     7 ORBITALS ARE OCCUPIED (    2 CORE ORBITALS).
     3=A1       4=A1       5=A1       6=B1       7=B2       8=B1       9=B2  
    10=A1      11=A1      12=A1      13=A1      14=A1      15=B1      16=B1  
    17=B2  
 ...... END OF INITIAL ORBITAL SELECTION ......
 CPU     0: STEP CPU TIME=     0.00 TOTAL CPU TIME=        0.0 (    0.0 MIN)
 TOTAL WALL CLOCK TIME=        0.1 SECONDS, CPU UTILIZATION IS  33.33%

                    ----------------------
                    AO INTEGRAL TECHNOLOGY
                    ----------------------
     S,P,L SHELL ROTATED AXIS INTEGRALS, REPROGRAMMED BY
        KAZUYA ISHIMURA (IMS) AND JOSE SIERRA (SYNSTAR).
     S,P,D,L SHELL ROTATED AXIS INTEGRALS PROGRAMMED BY
        KAZUYA ISHIMURA (INSTITUTE FOR MOLECULAR SCIENCE).
     S,P,D,F,G SHELL TO TOTAL QUARTET ANGULAR MOMENTUM SUM 5,
        ERIC PROGRAM BY GRAHAM FLETCHER (ELORET AND NASA ADVANCED
        SUPERCOMPUTING DIVISION, AMES RESEARCH CENTER).
     S,P,D,F,G,L SHELL GENERAL RYS QUADRATURE PROGRAMMED BY
        MICHEL DUPUIS (PACIFIC NORTHWEST NATIONAL LABORATORY).

          --------------------
          2 ELECTRON INTEGRALS
          --------------------

 THE -PK- OPTION IS OFF, THE INTEGRALS ARE NOT IN SUPERMATRIX FORM.
 STORING   15000 INTEGRALS/RECORD ON DISK, USING 12 BYTES/INTEGRAL.
 TWO ELECTRON INTEGRAL EVALUATION REQUIRES   89411 WORDS OF MEMORY.
 II,JST,KST,LST =  1  1  1  1 NREC =         1 INTLOC =    1
 II,JST,KST,LST =  2  1  1  1 NREC =         1 INTLOC =    2
 II,JST,KST,LST =  3  1  1  1 NREC =         1 INTLOC =    7
 II,JST,KST,LST =  4  1  1  1 NREC =         1 INTLOC =   17
 II,JST,KST,LST =  5  1  1  1 NREC =         1 INTLOC =   17
 II,JST,KST,LST =  6  1  1  1 NREC =         1 INTLOC =  104
 II,JST,KST,LST =  7  1  1  1 NREC =         1 INTLOC =  137
 II,JST,KST,LST =  8  1  1  1 NREC =         1 INTLOC =  137
 II,JST,KST,LST =  9  1  1  1 NREC =         1 INTLOC =  137
 II,JST,KST,LST = 10  1  1  1 NREC =         1 INTLOC =  233
 TOTAL NUMBER OF NONZERO TWO-ELECTRON INTEGRALS =                4075
         12 INTEGRAL RECORDS WERE STORED ON DISK FILE  8.
  ...... END OF TWO-ELECTRON INTEGRALS .....
 CPU     0: STEP CPU TIME=     0.02 TOTAL CPU TIME=        0.0 (    0.0 MIN)
 TOTAL WALL CLOCK TIME=        0.1 SECONDS, CPU UTILIZATION IS  50.00%

          --------------------------
                 RHF SCF CALCULATION
          --------------------------

     NUCLEAR ENERGY =         9.2606018617
     MAXIT =   30     NPUNCH=    2
     EXTRAP=T  DAMP=F  SHIFT=F  RSTRCT=F  DIIS=F  DEM=F  SOSCF=T
     DENSITY MATRIX CONV=  1.00E-06
     SOSCF WILL OPTIMIZE      77 ORBITAL ROTATIONS, SOGTOL=   0.250
     MEMORY REQUIRED FOR RHF ITERS=     32828 WORDS.

 ITER EX DEM     TOTAL ENERGY        E CHANGE  DENSITY CHANGE     ORB. GRAD
   1  0  0     -107.8563156210  -107.8563156210   0.249792125   0.000000000
          ---------------START SECOND ORDER SCF---------------
   2  1  0     -108.0448729686    -0.1885573476   0.112772565   0.056039227
   3  2  0     -108.0576620607    -0.0127890921   0.019244416   0.018481344
   4  3  0     -108.0594754923    -0.0018134316   0.003207560   0.001366766
   5  4  0     -108.0594882291    -0.0000127368   0.000948280   0.000362513
   6  5  0     -108.0594887171    -0.0000004881   0.000016587   0.000011887
   7  6  0     -108.0594887185    -0.0000000014   0.000006586   0.000003508
   8  7  0     -108.0594887186    -0.0000000001   0.000000796   0.000000474
   9  8  0     -108.0594887186    -0.0000000000   0.000000095   0.000000059

          -----------------
          DENSITY CONVERGED
          -----------------
     TIME TO FORM FOCK OPERATORS=       0.0 SECONDS (       0.0 SEC/ITER)
     TIME TO SOLVE SCF EQUATIONS=       0.0 SECONDS (       0.0 SEC/ITER)

 FINAL RHF ENERGY IS     -108.0594887186 AFTER   9 ITERATIONS

 LZ VALUE ANALYSIS FOR THE MOS
 ----------------------------------------
 MO     1 (    1) HAS LZ(WEIGHT)= 0.00(100.0%) 
 MO     2 (    2) HAS LZ(WEIGHT)= 0.00(100.0%) 
 MO     3 (    3) HAS LZ(WEIGHT)= 0.00(100.0%) 
 MO     4 (    4) HAS LZ(WEIGHT)= 0.00(100.0%) 
 MO     5 (    5) HAS LZ(WEIGHT)= 0.00(100.0%) 
 MO     6 (    6) HAS LZ(WEIGHT)=-1.00( 50.0%)  1.00( 50.0%) 
 MO     7 (    6) HAS LZ(WEIGHT)=-1.00( 50.0%)  1.00( 50.0%) 
 MO     8 (    7) HAS LZ(WEIGHT)=-1.00( 50.0%)  1.00( 50.0%) 
 MO     9 (    7) HAS LZ(WEIGHT)=-1.00( 50.0%)  1.00( 50.0%) 
 MO    10 (    8) HAS LZ(WEIGHT)= 0.00(100.0%) 
 MO    11 (    9) HAS LZ(WEIGHT)=-1.00( 50.0%)  1.00( 50.0%) 
 MO    12 (    9) HAS LZ(WEIGHT)=-1.00( 50.0%)  1.00( 50.0%) 
 MO    13 (   10) HAS LZ(WEIGHT)= 0.00(100.0%) 
 MO    14 (   11) HAS LZ(WEIGHT)=-1.00( 50.0%)  1.00( 50.0%) 
 MO    15 (   11) HAS LZ(WEIGHT)=-1.00( 50.0%)  1.00( 50.0%) 
 MO    16 (   12) HAS LZ(WEIGHT)= 0.00(100.0%) 
 MO    17 (   13) HAS LZ(WEIGHT)= 0.00(100.0%) 
 MO    18 (   14) HAS LZ(WEIGHT)= 0.00(100.0%) 

          ------------
          EIGENVECTORS
          ------------

                      1          2          3          4          5
                  -15.8435   -15.8434    -1.0526    -1.0210    -0.3915
                     A1         A1         A1         A1         A1  
    1  N  1  S    0.706991  -0.707002  -0.171838  -0.174718   0.012053
    2  N  1  S   -0.000220   0.000250   0.405844   0.419909  -0.047603
    3  N  1  S    0.000955  -0.000937   0.354759   0.352902  -0.009487
    4  N  1  X    0.000000   0.000000   0.000000   0.000000   0.000000
    5  N  1  Y    0.000000   0.000000   0.000000   0.000000   0.000000
    6  N  1  Z    0.000312  -0.000195   0.007401  -0.026249   0.482120
    7  N  1  X    0.000000   0.000000   0.000000   0.000000   0.000000
    8  N  1  Y    0.000000   0.000000   0.000000   0.000000   0.000000
    9  N  1  Z   -0.000110   0.000060   0.007978  -0.011048   0.275753
   10  N  2  S    0.706991   0.707002  -0.171838   0.174718   0.012053
   11  N  2  S   -0.000220  -0.000250   0.405844  -0.419909  -0.047603
   12  N  2  S    0.000955   0.000937   0.354759  -0.352902  -0.009487
   13  N  2  X    0.000000   0.000000   0.000000   0.000000   0.000000
   14  N  2  Y    0.000000   0.000000   0.000000   0.000000   0.000000
   15  N  2  Z   -0.000312  -0.000195  -0.007401  -0.026249  -0.482120
   16  N  2  X    0.000000   0.000000   0.000000   0.000000   0.000000
   17  N  2  Y    0.000000   0.000000   0.000000   0.000000   0.000000
   18  N  2  Z    0.000110   0.000060  -0.007978  -0.011048  -0.275753

                      6          7          8          9         10
                   -0.3592    -0.3592    -0.1612    -0.1612    -0.1167
                     B2         B1         B2         B1         A1  
    1  N  1  S    0.000000   0.000000   0.000000   0.000000  -0.016998
    2  N  1  S    0.000000   0.000000   0.000000   0.000000   0.049870
    3  N  1  S    0.000000   0.000000   0.000000   0.000000   0.033502
    4  N  1  X    0.000000   0.500917   0.000000   0.515993   0.000000
    5  N  1  Y    0.500917   0.000000   0.515993   0.000000   0.000000
    6  N  1  Z    0.000000   0.000000   0.000000   0.000000   0.533360
    7  N  1  X    0.000000   0.289447   0.000000   0.294115   0.000000
    8  N  1  Y    0.289447   0.000000   0.294115   0.000000   0.000000
    9  N  1  Z    0.000000   0.000000   0.000000   0.000000   0.320903
   10  N  2  S    0.000000   0.000000   0.000000   0.000000   0.016998
   11  N  2  S    0.000000   0.000000   0.000000   0.000000  -0.049870
   12  N  2  S    0.000000   0.000000   0.000000   0.000000  -0.033502
   13  N  2  X    0.000000   0.500917   0.000000  -0.515993   0.000000
   14  N  2  Y    0.500917   0.000000  -0.515993   0.000000   0.000000
   15  N  2  Z    0.000000   0.000000   0.000000   0.000000   0.533360
   16  N  2  X    0.000000   0.289447   0.000000  -0.294115   0.000000
   17  N  2  Y    0.289447   0.000000  -0.294115   0.000000   0.000000
   18  N  2  Z    0.000000   0.000000   0.000000   0.000000   0.320903

                     11         12         13         14         15
                    0.6007     0.6007     0.6420     0.6864     0.6864
                     B2         B1         A1         B2         B1  
    1  N  1  S    0.000000   0.000000   0.029501   0.000000   0.000000
    2  N  1  S    0.000000   0.000000  -0.230123   0.000000   0.000000
    3  N  1  S    0.000000   0.000000   0.145845   0.000000   0.000000
    4  N  1  X    0.000000  -0.656279   0.000000   0.000000  -0.663890
    5  N  1  Y   -0.656279   0.000000   0.000000  -0.663890   0.000000
    6  N  1  Z    0.000000   0.000000  -0.659929   0.000000   0.000000
    7  N  1  X    0.000000   0.732626   0.000000   0.000000   0.835317
    8  N  1  Y    0.732626   0.000000   0.000000   0.835317   0.000000
    9  N  1  Z    0.000000   0.000000   0.631980   0.000000   0.000000
   10  N  2  S    0.000000   0.000000   0.029501   0.000000   0.000000
   11  N  2  S    0.000000   0.000000  -0.230123   0.000000   0.000000
   12  N  2  S    0.000000   0.000000   0.145845   0.000000   0.000000
   13  N  2  X    0.000000  -0.656279   0.000000   0.000000   0.663890
   14  N  2  Y   -0.656279   0.000000   0.000000   0.663890   0.000000
   15  N  2  Z    0.000000   0.000000   0.659929   0.000000   0.000000
   16  N  2  X    0.000000   0.732626   0.000000   0.000000  -0.835317
   17  N  2  Y    0.732626   0.000000   0.000000  -0.835317   0.000000
   18  N  2  Z    0.000000   0.000000  -0.631980   0.000000   0.000000

                     16         17         18
                    0.6865     0.8570     1.1241
                     A1         A1         A1  
    1  N  1  S   -0.045022  -0.088395   0.073917
    2  N  1  S    0.409507   1.065561  -1.093053
    3  N  1  S   -0.309632  -1.059789   1.202118
    4  N  1  X    0.000000   0.000000   0.000000
    5  N  1  Y    0.000000   0.000000   0.000000
    6  N  1  Z   -0.601743  -0.158932  -0.305202
    7  N  1  X    0.000000   0.000000   0.000000
    8  N  1  Y    0.000000   0.000000   0.000000
    9  N  1  Z    0.887383   0.230896   0.603235
   10  N  2  S    0.045022  -0.088395  -0.073917
   11  N  2  S   -0.409507   1.065561   1.093053
   12  N  2  S    0.309632  -1.059789  -1.202118
   13  N  2  X    0.000000   0.000000   0.000000
   14  N  2  Y    0.000000   0.000000   0.000000
   15  N  2  Z   -0.601743   0.158932  -0.305202
   16  N  2  X    0.000000   0.000000   0.000000
   17  N  2  Y    0.000000   0.000000   0.000000
   18  N  2  Z    0.887383  -0.230896   0.603235
 ...... END OF RHF CALCULATION ......
 CPU     0: STEP CPU TIME=     0.01 TOTAL CPU TIME=        0.0 (    0.0 MIN)
 TOTAL WALL CLOCK TIME=        0.1 SECONDS, CPU UTILIZATION IS  55.56%

     ----------------------------------------------------------------
     PROPERTY VALUES FOR THE RHF   SELF-CONSISTENT FIELD WAVEFUNCTION
     ----------------------------------------------------------------

          -----------------
          ENERGY COMPONENTS
          -----------------

         WAVEFUNCTION NORMALIZATION =       1.0000000000

                ONE ELECTRON ENERGY =    -164.8994711659
                TWO ELECTRON ENERGY =      47.5793805856
           NUCLEAR REPULSION ENERGY =       9.2606018617
                                      ------------------
                       TOTAL ENERGY =    -108.0594887186

 ELECTRON-ELECTRON POTENTIAL ENERGY =      47.5793805856
  NUCLEUS-ELECTRON POTENTIAL ENERGY =    -272.1733282466
   NUCLEUS-NUCLEUS POTENTIAL ENERGY =       9.2606018617
                                      ------------------
             TOTAL POTENTIAL ENERGY =    -215.3333457994
               TOTAL KINETIC ENERGY =     107.2738570807
                 VIRIAL RATIO (V/T) =       2.0073236076

  ...... PI ENERGY ANALYSIS ......

 ENERGY ANALYSIS:
            FOCK ENERGY=    -69.7407094672
          BARE H ENERGY=   -164.8994711659
     ELECTRONIC ENERGY =   -117.3200903165
         KINETIC ENERGY=    107.2738570807
          N-N REPULSION=      9.2606018617
           TOTAL ENERGY=   -108.0594884548
        SIGMA PART(1+2)=   -104.9008153126
               (K,V1,2)=    100.9404731137   -242.4381476651     36.5968592387
           PI PART(1+2)=    -12.4192750039
               (K,V1,2)=      6.3333839670    -29.7351805815     10.9825216107
  SIGMA SKELETON, ERROR=    -95.6402134509     -0.0000000000
             MIXED PART= 0.00000E+00 0.00000E+00 0.00000E+00 0.00000E+00
 ...... END OF PI ENERGY ANALYSIS ......

          ---------------------------------------
          MULLIKEN AND LOWDIN POPULATION ANALYSES
          ---------------------------------------

               ----- POPULATIONS IN EACH AO -----
                             MULLIKEN      LOWDIN
              1  N  1  S      2.00013     1.99708
              2  N  1  S      1.07414     1.04086
              3  N  1  S      0.92266     0.95373
              4  N  1  X      0.65893     0.62981
              5  N  1  Y      0.65893     0.62981
              6  N  1  Z      0.63176     0.59109
              7  N  1  X      0.34107     0.37019
              8  N  1  Y      0.34107     0.37019
              9  N  1  Z      0.37130     0.41723
             10  N  2  S      2.00013     1.99708
             11  N  2  S      1.07414     1.04086
             12  N  2  S      0.92266     0.95373
             13  N  2  X      0.65893     0.62981
             14  N  2  Y      0.65893     0.62981
             15  N  2  Z      0.63176     0.59109
             16  N  2  X      0.34107     0.37019
             17  N  2  Y      0.34107     0.37019
             18  N  2  Z      0.37130     0.41723

          ----- MULLIKEN ATOMIC OVERLAP POPULATIONS -----
          (OFF-DIAGONAL ELEMENTS NEED TO BE MULTIPLIED BY 2)

             1           2

    1    6.8463800
    2    0.1536200   6.8463800

          TOTAL MULLIKEN AND LOWDIN ATOMIC POPULATIONS
       ATOM         MULL.POP.    CHARGE          LOW.POP.     CHARGE
    1 N             7.000000    0.000000         7.000000    0.000000
    2 N             7.000000   -0.000000         7.000000   -0.000000

          ---------------------
          ELECTROSTATIC MOMENTS
          ---------------------

 POINT   1           X           Y           Z (BOHR)    CHARGE
                 0.000000    0.000000    2.645616       -0.00 (A.U.)
         DX          DY          DZ         /D/  (DEBYE)
     0.000000    0.000000   -0.000000    0.000000
 ...... END OF PROPERTY EVALUATION ......
 CPU     0: STEP CPU TIME=     0.00 TOTAL CPU TIME=        0.0 (    0.0 MIN)
 TOTAL WALL CLOCK TIME=        0.1 SECONDS, CPU UTILIZATION IS  38.46%

 DETERMINANT CI OPTIONS   NRNFG   NPFLG
 INTEGRAL TRANSFORMATION    1       0
 DIAGONALIZE HAMILTONIAN    1       0
 FORM 1E- DENSITY MATRIX    1       0
 FORM 2E- DENSITY MATRIX    0       0

     --------------------------------------------------
          AMES LABORATORY DETERMINANTAL FULL CI
     PROGRAM WRITTEN BY JOE IVANIC AND KLAUS RUEDENBERG
     --------------------------------------------------

 THE POINT GROUP                  =   C2V     
 THE STATE SYMMETRY               =   A1      
 NUMBER OF CORE ORBITALS          =    2
 NUMBER OF ACTIVE ORBITALS        =   16
 NUMBER OF ALPHA ELECTRONS        =    7 (   5 ACTIVE)
 NUMBER OF BETA ELECTRONS         =    7 (   5 ACTIVE)
 NUMBER OF OCCUPIED ORBITALS      =   18
 NUMBER OF CI STATES REQUESTED    =    1
 NUMBER OF CI STARTING VECTORS    =    6
 MAX. NO. OF CI EXPANSION VECTORS =   12
 SIZE OF INITIAL CI GUESS MATRIX  =  300
 MAX. NO. OF CI ITERS/STATE       =  100
 CI DIAGONALIZATION CRITERION     = 1.00E-06
 CI PROPERTIES WILL BE FOUND FOR ROOT NUMBER   1
 1E- DENSITY MATRIX OPTIONS ARE 1

 CORRELATION ENERGY ANALYSIS      =    F

 SYMMETRIES FOR THE   2 CORE,  16 ACTIVE ARE

     CORE= A1    A1  

   ACTIVE= A1    A1    A1    B2    B1    B2    B1    A1    B2    B1  
           A1    B2    B1    A1    A1    A1  

     --------------------------------------------
     PARTIAL TWO ELECTRON INTEGRAL TRANSFORMATION
     --------------------------------------------

 NUMBER OF CORE MOLECULAR ORBITALS     =    2
 NUMBER OF OCCUPIED MOLECULAR ORBITALS =   18
 TOTAL NUMBER OF MOLECULAR ORBITALS    =   18
 TOTAL NUMBER OF ATOMIC ORBITALS       =   18
 THRESHOLD FOR KEEPING TRANSFORMED 2E- INTEGRALS = 1.000E-09

 -------------------------------     ------------------------------
 DISTRIBUTED DATA TRANSFORMATION     PROGRAM WRITTEN BY G. FLETCHER
 -------------------------------     ------------------------------

 THE DISTRIBUTED MEMORY REQUIRED FOR THIS STEP IS MEMDDI=         1 MWORDS
 CREATING DISTRIBUTED STORAGE FOR [OCC OCC|OCC OCC] INTEGRALS
 DDI: Creating Array [0] - 171 x 171 = 29241 words.
 CREATING WORKSPACE OF SIZE VVOO
 DDI: Creating Array [1] - 171 x 171 = 29241 words.
 FOR   12 PROCESSORS, THE REPLICATED MEMORY NEEDED IS       58507 WORDS.

      DIRECT 4-INDEX TRANSFORMATION 
      SCHWARZ INEQUALITY TEST SKIPPED          0 INTEGRAL BLOCKS
 ----- FROZEN CORE ENERGY =       -94.0000938505
 ... END OF INTEGRAL TRANSFORMATION ...
 CPU     0: STEP CPU TIME=     0.00 TOTAL CPU TIME=        0.0 (    0.0 MIN)
 TOTAL WALL CLOCK TIME=        0.2 SECONDS, CPU UTILIZATION IS  27.78%

     --------------------------------------------------
          AMES LABORATORY DETERMINANTAL FULL CI
     PROGRAM WRITTEN BY JOE IVANIC AND KLAUS RUEDENBERG
     --------------------------------------------------

 THE NUMBER OF DETERMINANTS HAVING SPACE SYMMETRY A1 
 IN POINT GROUP C2V  WITH SZ=  0.0 IS        4777056
 THE DETERMINANT FULL CI REQUIRES       119865995 WORDS
 INITIAL CI VECTOR GUESS TIME  :          2.0
 INITIAL FULL CI ITERATION TIME:          5.7

 ITERATION      ENERGY           GRADIENT
     0     -108.7434424052     0.45538622
     1     -108.8420462668     0.18332810
     2     -108.8539318910     0.07050258
     3     -108.8555006792     0.03350819
     4     -108.8558979425     0.01618992
     5     -108.8559745898     0.00655914
     6     -108.8559839683     0.00386329
     7     -108.8559861833     0.00224469
     8     -108.8559879787     0.00168760
     9     -108.8559889376     0.00141090
    10     -108.8559895857     0.00132918
    11     -108.8559901599     0.00137347
    12     -108.8559913885     0.00185777
    13     -108.8559931571     0.00235377
    14     -108.8559997517     0.00580972
    15     -108.8561767618     0.05179971
    16     -108.8574434888     0.04516486
    17     -108.8579892021     0.02706544
    18     -108.8581326882     0.01862718
    19     -108.8581953393     0.01271055
    20     -108.8582469640     0.00906067
    21     -108.8582709255     0.00611671
    22     -108.8582806753     0.00394808
    23     -108.8582854706     0.00269878
    24     -108.8582879798     0.00215908
    25     -108.8582889292     0.00126184
    26     -108.8582894567     0.00095364
    27     -108.8582897784     0.00081043
    28     -108.8582899340     0.00052122
    29     -108.8582899967     0.00026157
    30     -108.8582900104     0.00019781
    31     -108.8582900173     0.00013506
    32     -108.8582900237     0.00009406
    33     -108.8582900260     0.00006226
    34     -108.8582900269     0.00003410
    35     -108.8582900272     0.00002230
    36     -108.8582900273     0.00001913
    37     -108.8582900274     0.00001169
    38     -108.8582900275     0.00000934
    39     -108.8582900275     0.00000779
    40     -108.8582900275     0.00000504
    41     -108.8582900275     0.00000277
    42     -108.8582900275     0.00000241
    43     -108.8582900275     0.00000154
    44     -108.8582900275     0.00000111
    45     -108.8582900275     0.00000080

 CONVERGED STATE    1 ENERGY=     -108.8582900275 IN   45 ITERS

 ALL STATES CONVERGED.

 CI EIGENVECTORS WILL BE LABELED IN GROUP=C2V     
 PRINTING CI COEFFICIENTS LARGER THAN  0.050000

 STATE   1  ENERGY=      -108.8582900275  S=  0.00  SZ=  0.00  SPACE SYM=A1  

      ALPHA       |      BETA        | COEFFICIENT
------------------|------------------|------------
 1111100000000000 | 1111100000000000 |   0.2999752
 1110110000000000 | 1110110000000000 |  -0.2772839
 1111001000000000 | 1111001000000000 |  -0.2772839
 1110011000000000 | 1110011000000000 |   0.2573035
 1101100100000000 | 1101100100000000 |  -0.2185704
 1100110100000000 | 1100110100000000 |   0.2058613
 1101001100000000 | 1101001100000000 |   0.2058613
 1100011100000000 | 1100011100000000 |  -0.1947652
 1110101000000000 | 1111010000000000 |  -0.1843569
 1111010000000000 | 1110101000000000 |  -0.1843569
 1101101000000000 | 1111000100000000 |  -0.1585648
 1111000100000000 | 1101101000000000 |  -0.1585648
 1110100100000000 | 1101110000000000 |  -0.1585648
 1101110000000000 | 1110100100000000 |  -0.1585648
 1100111000000000 | 1110010100000000 |  -0.1481461
 1110010100000000 | 1100111000000000 |  -0.1481461
 1110001100000000 | 1101011000000000 |  -0.1481461
 1101011000000000 | 1110001100000000 |  -0.1481461
 1100101100000000 | 1101010100000000 |   0.1368489
 1101010100000000 | 1100101100000000 |   0.1368489
 1111001000000000 | 1110110000000000 |  -0.0927875
 1110110000000000 | 1111001000000000 |  -0.0927875
 1111100000000000 | 1110011000000000 |  -0.0915694
 1110011000000000 | 1111100000000000 |  -0.0915694
 1101100100000000 | 1110110000000000 |  -0.0816154
 1110110000000000 | 1101100100000000 |  -0.0816154
 1111001000000000 | 1101100100000000 |  -0.0816153
 1101100100000000 | 1111001000000000 |  -0.0816153
 1100110100000000 | 1111100000000000 |   0.0769494
 1111100000000000 | 1100110100000000 |   0.0769494
 1111100000000000 | 1101001100000000 |   0.0769494
 1101001100000000 | 1111100000000000 |   0.0769494
 1101001100000000 | 1110011000000000 |  -0.0763134
 1110011000000000 | 1101001100000000 |  -0.0763134
 1110011000000000 | 1100110100000000 |  -0.0763134
 1100110100000000 | 1110011000000000 |  -0.0763134
 1100011100000000 | 1111001000000000 |   0.0718327
 1111001000000000 | 1100011100000000 |   0.0718327
 1110110000000000 | 1100011100000000 |   0.0718327
 1100011100000000 | 1110110000000000 |   0.0718327
 1101001100000000 | 1100110100000000 |   0.0689194
 1100110100000000 | 1101001100000000 |   0.0689194
 1101100100000000 | 1100011100000000 |   0.0679295
 1100011100000000 | 1101100100000000 |   0.0679295
 ..... DONE WITH DETERMINANT CI COMPUTATION .....
 CPU     0: STEP CPU TIME=   121.02 TOTAL CPU TIME=      121.1 (    2.0 MIN)
 TOTAL WALL CLOCK TIME=      155.2 SECONDS, CPU UTILIZATION IS  78.01%

     ---------------------------
     ONE PARTICLE DENSITY MATRIX
     ---------------------------

 DENSITY MATRIX WILL BE SAVED FOR   1-TH STATE WITH S= 0.00

 CI EIGENSTATE   1 TOTAL ENERGY =     -108.8582900275

          NATURAL ORBITALS IN ATOMIC ORBITAL BASIS
          ----------------------------------------

                      1          2          3          4          5
                    2.0000     2.0000     1.9857     1.9828     1.1961
                     A1         A1         A1         A1         A1  
    1  N  1  S    0.706991   0.707002  -0.169417  -0.172590   0.004661
    2  N  1  S   -0.000220  -0.000250   0.376247   0.388762  -0.010447
    3  N  1  S    0.000955   0.000937   0.384513   0.386577  -0.020514
    4  N  1  X    0.000000   0.000000   0.000000   0.000000   0.000000
    5  N  1  Y    0.000000   0.000000   0.000000   0.000000   0.000000
    6  N  1  Z    0.000312   0.000195  -0.003940   0.000102   0.535945
    7  N  1  X    0.000000   0.000000   0.000000   0.000000   0.000000
    8  N  1  Y    0.000000   0.000000   0.000000   0.000000   0.000000
    9  N  1  Z   -0.000110  -0.000060  -0.000892  -0.004395   0.222150
   10  N  2  S    0.706991  -0.707002  -0.169417   0.172590   0.004661
   11  N  2  S   -0.000220   0.000250   0.376247  -0.388762  -0.010447
   12  N  2  S    0.000955  -0.000937   0.384513  -0.386577  -0.020514
   13  N  2  X    0.000000   0.000000   0.000000   0.000000   0.000000
   14  N  2  Y    0.000000   0.000000   0.000000   0.000000   0.000000
   15  N  2  Z   -0.000312   0.000195   0.003940   0.000102  -0.535945
   16  N  2  X    0.000000   0.000000   0.000000   0.000000   0.000000
   17  N  2  Y    0.000000   0.000000   0.000000   0.000000   0.000000
   18  N  2  Z    0.000110  -0.000060   0.000892  -0.004395  -0.222150

                      6          7          8          9         10
                    1.0427     1.0427     0.9483     0.9483     0.7960
                     B1         B2         B2         B1         A1  
    1  N  1  S    0.000000   0.000000   0.000000   0.000000  -0.007342
    2  N  1  S    0.000000   0.000000   0.000000   0.000000   0.015741
    3  N  1  S    0.000000   0.000000   0.000000   0.000000   0.026177
    4  N  1  X    0.553089   0.000000   0.000000   0.567151   0.000000
    5  N  1  Y    0.000000   0.553089   0.567151   0.000000   0.000000
    6  N  1  Z    0.000000   0.000000   0.000000   0.000000   0.589892
    7  N  1  X    0.228342   0.000000   0.000000   0.226760   0.000000
    8  N  1  Y    0.000000   0.228342   0.226760   0.000000   0.000000
    9  N  1  Z    0.000000   0.000000   0.000000   0.000000   0.231584
   10  N  2  S    0.000000   0.000000   0.000000   0.000000   0.007342
   11  N  2  S    0.000000   0.000000   0.000000   0.000000  -0.015741
   12  N  2  S    0.000000   0.000000   0.000000   0.000000  -0.026177
   13  N  2  X    0.553089   0.000000   0.000000  -0.567151   0.000000
   14  N  2  Y    0.000000   0.553089  -0.567151   0.000000   0.000000
   15  N  2  Z    0.000000   0.000000   0.000000   0.000000   0.589892
   16  N  2  X    0.228342   0.000000   0.000000  -0.226760   0.000000
   17  N  2  Y    0.000000   0.228342  -0.226760   0.000000   0.000000
   18  N  2  Z    0.000000   0.000000   0.000000   0.000000   0.231584

                     11         12         13         14         15
                    0.0127     0.0099     0.0069     0.0066     0.0066
                     A1         A1         A1         B1         B2  
    1  N  1  S   -0.096712  -0.089607  -0.016743   0.000000   0.000000
    2  N  1  S    1.058946   1.070595   0.303833   0.000000   0.000000
    3  N  1  S   -0.991734  -1.049432  -0.372236   0.000000   0.000000
    4  N  1  X    0.000000   0.000000   0.000000  -0.612953   0.000000
    5  N  1  Y    0.000000   0.000000   0.000000   0.000000  -0.612953
    6  N  1  Z    0.149084  -0.188243  -0.619501   0.000000   0.000000
    7  N  1  X    0.000000   0.000000   0.000000   0.753910   0.000000
    8  N  1  Y    0.000000   0.000000   0.000000   0.000000   0.753910
    9  N  1  Z   -0.108068   0.226713   0.683948   0.000000   0.000000
   10  N  2  S   -0.096712   0.089607  -0.016743   0.000000   0.000000
   11  N  2  S    1.058946  -1.070595   0.303833   0.000000   0.000000
   12  N  2  S   -0.991734   1.049432  -0.372236   0.000000   0.000000
   13  N  2  X    0.000000   0.000000   0.000000  -0.612953   0.000000
   14  N  2  Y    0.000000   0.000000   0.000000   0.000000  -0.612953
   15  N  2  Z   -0.149084  -0.188243   0.619501   0.000000   0.000000
   16  N  2  X    0.000000   0.000000   0.000000   0.753910   0.000000
   17  N  2  Y    0.000000   0.000000   0.000000   0.000000   0.753910
   18  N  2  Z    0.108068   0.226713  -0.683948   0.000000   0.000000

                     16         17         18
                    0.0054     0.0054     0.0038
                     B2         B1         A1  
    1  N  1  S    0.000000   0.000000   0.020866
    2  N  1  S    0.000000   0.000000  -0.493675
    3  N  1  S    0.000000   0.000000   0.644349
    4  N  1  X    0.000000  -0.620757   0.000000
    5  N  1  Y   -0.620757   0.000000   0.000000
    6  N  1  Z    0.000000   0.000000  -0.597493
    7  N  1  X    0.000000   0.856059   0.000000
    8  N  1  Y    0.856059   0.000000   0.000000
    9  N  1  Z    0.000000   0.000000   1.072098
   10  N  2  S    0.000000   0.000000  -0.020866
   11  N  2  S    0.000000   0.000000   0.493675
   12  N  2  S    0.000000   0.000000  -0.644349
   13  N  2  X    0.000000   0.620757   0.000000
   14  N  2  Y    0.620757   0.000000   0.000000
   15  N  2  Z    0.000000   0.000000  -0.597493
   16  N  2  X    0.000000  -0.856059   0.000000
   17  N  2  Y   -0.856059   0.000000   0.000000
   18  N  2  Z    0.000000   0.000000   1.072098
 ..... DONE WITH ONE PARTICLE DENSITY MATRIX .....
 CPU     0: STEP CPU TIME=     1.22 TOTAL CPU TIME=      122.3 (    2.0 MIN)
 TOTAL WALL CLOCK TIME=      156.6 SECONDS, CPU UTILIZATION IS  78.07%

     --------------------------------------------------------
     ALDET CI PROPERTIES...FOR THE WAVEFUNCTION OF STATE    1
               USING THE EXPECTATION VALUE DENSITY
     --------------------------------------------------------

          -----------------
          ENERGY COMPONENTS
          -----------------

         WAVEFUNCTION NORMALIZATION =       1.0000000000

                ONE ELECTRON ENERGY =    -166.1742242417
                TWO ELECTRON ENERGY =      48.0553323525
           NUCLEAR REPULSION ENERGY =       9.2606018617
                                      ------------------
                       TOTAL ENERGY =    -108.8582900275

 ELECTRON-ELECTRON POTENTIAL ENERGY =      48.0553323525
  NUCLEUS-ELECTRON POTENTIAL ENERGY =    -274.8767644455
   NUCLEUS-NUCLEUS POTENTIAL ENERGY =       9.2606018617
                                      ------------------
             TOTAL POTENTIAL ENERGY =    -217.5608302313
               TOTAL KINETIC ENERGY =     108.7025402038
                 VIRIAL RATIO (V/T) =       2.0014328076

          ---------------------------------------
          MULLIKEN AND LOWDIN POPULATION ANALYSES
          ---------------------------------------

               ----- POPULATIONS IN EACH AO -----
                             MULLIKEN      LOWDIN
              1  N  1  S      2.00014     1.99629
              2  N  1  S      0.98236     0.98522
              3  N  1  S      1.01154     1.00726
              4  N  1  X      0.75934     0.72031
              5  N  1  Y      0.75934     0.72031
              6  N  1  Z      0.75711     0.71694
              7  N  1  X      0.24214     0.28117
              8  N  1  Y      0.24214     0.28117
              9  N  1  Z      0.24589     0.29133
             10  N  2  S      2.00014     1.99629
             11  N  2  S      0.98236     0.98522
             12  N  2  S      1.01154     1.00726
             13  N  2  X      0.75934     0.72031
             14  N  2  Y      0.75934     0.72031
             15  N  2  Z      0.75711     0.71694
             16  N  2  X      0.24214     0.28117
             17  N  2  Y      0.24214     0.28117
             18  N  2  Z      0.24589     0.29133

          ----- MULLIKEN ATOMIC OVERLAP POPULATIONS -----
          (OFF-DIAGONAL ELEMENTS NEED TO BE MULTIPLIED BY 2)

             1           2

    1    6.9918113
    2    0.0081887   6.9918113

          TOTAL MULLIKEN AND LOWDIN ATOMIC POPULATIONS
       ATOM         MULL.POP.    CHARGE          LOW.POP.     CHARGE
    1 N             7.000000    0.000000         7.000000    0.000000
    2 N             7.000000    0.000000         7.000000    0.000000

          ---------------------
          ELECTROSTATIC MOMENTS
          ---------------------

 POINT   1           X           Y           Z (BOHR)    CHARGE
                 0.000000    0.000000    2.645616        0.00 (A.U.)
         DX          DY          DZ         /D/  (DEBYE)
     0.000000    0.000000    0.000000    0.000000
 ...... END OF PROPERTY EVALUATION ......
 CPU     0: STEP CPU TIME=     0.00 TOTAL CPU TIME=      122.3 (    2.0 MIN)
 TOTAL WALL CLOCK TIME=      157.1 SECONDS, CPU UTILIZATION IS  77.83%
             119866889  WORDS OF DYNAMIC MEMORY USED
 EXECUTION OF GAMESS TERMINATED NORMALLY Thu Jan 17 18:18:19 2019
 DDI: 305760 bytes (0.3 MB / 0 MWords) used by master data server.

 ----------------------------------------
 CPU timing information for all processes
 ========================================
 0: 113.624 + 8.824 = 122.448
 1: 112.444 + 9.316 = 121.760
 2: 112.660 + 9.416 = 122.76
 3: 112.476 + 8.868 = 121.344
 4: 112.996 + 9.500 = 122.496
 5: 113.312 + 9.568 = 122.880
 6: 111.392 + 8.528 = 119.920
 7: 111.940 + 7.860 = 119.800
 8: 112.736 + 8.36 = 120.772
 9: 111.988 + 8.836 = 120.824
 10: 112.724 + 7.980 = 120.704
 11: 112.608 + 7.756 = 120.364
 12: 0.376 + 4.728 = 5.104
 13: 0.04 + 0.04 = 0.08
 14: 0.08 + 0.00 = 0.08
 15: 0.00 + 0.04 = 0.04
 16: 0.04 + 0.04 = 0.08
 17: 0.04 + 0.04 = 0.08
 18: 0.04 + 0.04 = 0.08
 19: 0.00 + 0.08 = 0.08
 20: 0.04 + 0.00 = 0.04
 21: 0.04 + 0.04 = 0.08
 22: 0.04 + 0.00 = 0.04
 23: 0.04 + 0.00 = 0.04
 ----------------------------------------
 ddikick.x: exited gracefully.
unset echo
----- accounting info -----
Files used on the master node localhost were:
-rw-rw-r-- 1 maho maho    13429 Jan 17 18:18 ./N2.SV/2.8/N2.SV.fullCI.2.8.gamess.dat
-rw------- 1 maho maho     1813 Jan 17 18:15 ./N2.SV/2.8/N2.SV.fullCI.2.8.gamess.F05
-rw-rw-r-- 1 maho maho   180016 Jan 17 18:15 ./N2.SV/2.8/N2.SV.fullCI.2.8.gamess.F08
-rw-rw-r-- 1 maho maho     1376 Jan 17 18:15 ./N2.SV/2.8/N2.SV.fullCI.2.8.gamess.F09
-rw-rw-r-- 1 maho maho  1865040 Jan 17 18:18 ./N2.SV/2.8/N2.SV.fullCI.2.8.gamess.F10
-rw-rw-r-- 1 maho maho 38216480 Jan 17 18:18 ./N2.SV/2.8/N2.SV.fullCI.2.8.gamess.F12
-rw------- 1 maho maho     1813 Jan 17 18:15 ./N2.SV/2.8/N2.SV.fullCI.2.8.gamess.inp
-rw-rw-r-- 1 maho maho    49102 Jan 17 18:18 ./N2.SV/2.8/N2.SV.fullCI.2.8.gamess.log
ls: No match.
ls: No match.
ls: No match.
Thu Jan 17 18:18:22 JST 2019
0.0u 0.0s 2:40.59 0.0% 0+0k 0+8io 0pf+0w
