----- GAMESS execution script 'rungms' -----
This job is running on host bach.ad64.riken.go.jp
under operating system Darwin at 2019年 1月17日 木曜日 17時47分27秒 JST
Available scratch disk space (Kbyte units) at beginning of the job is
Filesystem   1024-blocks       Used Available Capacity iused      ifree %iused  Mounted on
/dev/disk2s2  1953178672 1144749032 808429640    59%  984250 4293983029    0%   /Volumes/Users
GAMESS temporary binary files will be written to ./
GAMESS supplementary output files will be written to ./
Copying input file LiH.631g/2.3/LiH.631g.fullCI.2.3.gamess.inp to your run's scratch directory...
cp LiH.631g/2.3/LiH.631g.fullCI.2.3.gamess.inp .//LiH.631g/2.3/LiH.631g.fullCI.2.3.gamess.F05
unset echo
/Volumes/Users/maho/bin/gamess//ddikick.x /Volumes/Users/maho/bin/gamess//gamess.00.x LiH.631g/2.3/LiH.631g.fullCI.2.3.gamess -ddi 1 1 bach.ad64.riken.go.jp -scr ./

 Distributed Data Interface kickoff program.
 Initiating 1 compute processes on 1 nodes to run the following command:
 /Volumes/Users/maho/bin/gamess//gamess.00.x LiH.631g/2.3/LiH.631g.fullCI.2.3.gamess 

          ******************************************************
          *         GAMESS VERSION = 18 AUG 2016 (R1)          *
          *             FROM IOWA STATE UNIVERSITY             *
          * M.W.SCHMIDT, K.K.BALDRIDGE, J.A.BOATZ, S.T.ELBERT, *
          *   M.S.GORDON, J.H.JENSEN, S.KOSEKI, N.MATSUNAGA,   *
          *          K.A.NGUYEN, S.J.SU, T.L.WINDUS,           *
          *       TOGETHER WITH M.DUPUIS, J.A.MONTGOMERY       *
          *         J.COMPUT.CHEM.  14, 1347-1363(1993)        *
          **************** 64 BIT APPLE VERSION ****************

  SINCE 1993, STUDENTS AND POSTDOCS WORKING AT IOWA STATE UNIVERSITY
  AND ALSO IN THEIR VARIOUS JOBS AFTER LEAVING ISU HAVE MADE IMPORTANT
  CONTRIBUTIONS TO THE CODE:
     IVANA ADAMOVIC, CHRISTINE AIKENS, YURI ALEXEEV, POOJA ARORA,
     ANDREY ASADCHEV, ROB BELL, PRADIPTA BANDYOPADHYAY, JONATHAN BENTZ,
     BRETT BODE, KURT BRORSEN, CALEB CARLIN, GALINA CHABAN, WEI CHEN,
     CHEOL HO CHOI, PAUL DAY, ALBERT DEFUSCO, NUWAN DESILVA, TIM DUDLEY,
     DMITRI FEDOROV, GRAHAM FLETCHER, MARK FREITAG, KURT GLAESEMANN,
     DAN KEMP, GRANT MERRILL, NORIYUKI MINEZAWA, JONATHAN MULLIN,
     TAKESHI NAGATA, SEAN NEDD, HEATHER NETZLOFF, BOSILJKA NJEGIC, RYAN OLSON,
     MIKE PAK, SPENCER PRUITT, LUKE ROSKOP, JIM SHOEMAKER, LYUDMILA SLIPCHENKO,
     TONY SMITH, SAROM SOK LEANG, JIE SONG, TETSUYA TAKETSUGU, SIMON WEBB,
     PENG XU, SOOHAENG YOO, FEDERICO ZAHARIEV

  ADDITIONAL CODE HAS BEEN PROVIDED BY COLLABORATORS IN OTHER GROUPS:
     IOWA STATE UNIVERSITY:
          JOE IVANIC, AARON WEST, LAIMUTIS BYTAUTAS, KLAUS RUEDENBERG
     UNIVERSITY OF TOKYO: KIMIHIKO HIRAO, TAKAHITO NAKAJIMA,
          TAKAO TSUNEDA, MUNEAKI KAMIYA, SUSUMU YANAGISAWA,
          KIYOSHI YAGI, MAHITO CHIBA, SEIKEN TOKURA, NAOAKI KAWAKAMI
     UNIVERSITY OF AARHUS: FRANK JENSEN
     UNIVERSITY OF IOWA: VISVALDAS KAIRYS, HUI LI
     NATIONAL INST. OF STANDARDS AND TECHNOLOGY: WALT STEVENS, DAVID GARMER
     UNIVERSITY OF PISA: BENEDETTA MENNUCCI, JACOPO TOMASI
     UNIVERSITY OF MEMPHIS: HENRY KURTZ, PRAKASHAN KORAMBATH
     UNIVERSITY OF ALBERTA: TOBY ZENG, MARIUSZ KLOBUKOWSKI
     UNIVERSITY OF NEW ENGLAND: MARK SPACKMAN
     MIE UNIVERSITY: HIROAKI UMEDA
     NAT. INST. OF ADVANCED INDUSTRIAL SCIENCE AND TECHNOLOGY: KAZUO KITAURA
     MICHIGAN STATE UNIVERSITY:
          KAROL KOWALSKI, MARTA WLOCH, JEFFREY GOUR, JESSE LUTZ,
          WEI LI, PIOTR PIECUCH
     UNIVERSITY OF SILESIA: MONIKA MUSIAL, STANISLAW KUCHARSKI
     FACULTES UNIVERSITAIRES NOTRE-DAME DE LA PAIX:
          OLIVIER QUINET, BENOIT CHAMPAGNE
     UNIVERSITY OF CALIFORNIA - SANTA BARBARA: BERNARD KIRTMAN
     INSTITUTE FOR MOLECULAR SCIENCE:
          KAZUYA ISHIMURA, MICHIO KATOUDA, AND SHIGERU NAGASE
     UNIVERSITY OF NOTRE DAME: ANNA POMOGAEVA, DAN CHIPMAN
     KYUSHU UNIVERSITY:
          HARUYUKI NAKANO,
          FENG LONG GU, JACEK KORCHOWIEC, MARCIN MAKOWSKI, AND YURIKO AOKI,
          HIROTOSHI MORI AND EISAKU MIYOSHI
     PENNSYLVANIA STATE UNIVERSITY:
          TZVETELIN IORDANOV, CHET SWALINA, JONATHAN SKONE,
          SHARON HAMMES-SCHIFFER
     WASEDA UNIVERSITY:
          MASATO KOBAYASHI, TOMOKO AKAMA, TSUGUKI TOUMA,
          TAKESHI YOSHIKAWA, YASUHIRO IKABATA, JUNJI SEINO,
          YUYA NAKAJIMA, HIROMI NAKAI
     NANJING UNIVERSITY: SHUHUA LI
     UNIVERSITY OF NEBRASKA:
          PEIFENG SU, DEJUN SI, NANDUN THELLAMUREGE, YALI WANG, HUI LI
     UNIVERSITY OF ZURICH: ROBERTO PEVERATI, KIM BALDRIDGE
     N. COPERNICUS UNIVERSITY AND JACKSON STATE UNIVERSITY:
          MARIA BARYSZ
     UNIVERSITY OF COPENHAGEN: Jimmy Kromann, CASPER STEINMANN
     TOKYO INSTITUTE OF TECHNOLOGY: HIROYA NAKATA
     NAGOYA UNIVERSITY: YOSHIO NISHIMOTO, STEPHAN IRLE
     MOSCOW STATE UNIVERSITY: VLADIMIR MIRONOV

 EXECUTION OF GAMESS BEGUN Thu Jan 17 17:47:28 2019

            ECHO OF THE FIRST FEW INPUT CARDS -
 INPUT CARD> $CONTRL SCFTYP=RHF CITYP=ALDET $END                                            
 INPUT CARD> $GUESS  GUESS=HUCKEL $END                                                      
 INPUT CARD> $BASIS GBASIS=N31 NGAUSS=6 NDFUNC=1 NPFUNC=1 $END                              
 INPUT CARD> $CIDET SZ=0 GROUP=C2V NCORE=0 NACT=20 NELS=4 $END                              
 INPUT CARD> $DATA                                                                          
 INPUT CARD>LiH...HF...6-31G* basis                                                         
 INPUT CARD>Cnv   2                                                                         
 INPUT CARD>                                                                                
 INPUT CARD>Li    3.0    0.0      0.0     0.0                                               
 INPUT CARD>H     1.0    0.0      0.0     2.3                                               
 INPUT CARD> $END                                                                           
    1000000 WORDS OF MEMORY AVAILABLE

     BASIS OPTIONS
     -------------
     GBASIS=N31          IGAUSS=       6      POLAR=POPN31  
     NDFUNC=       1     NFFUNC=       0     DIFFSP=       F
     NPFUNC=       1      DIFFS=       F     BASNAM=        


     RUN TITLE
     ---------
 LiH...HF...6-31G* basis                                                         

 THE POINT GROUP OF THE MOLECULE IS CNV     
 THE ORDER OF THE PRINCIPAL AXIS IS     2

 ATOM      ATOMIC                      COORDINATES (BOHR)
           CHARGE         X                   Y                   Z
 LI          3.0     0.0000000000        0.0000000000        0.0000000000
 H           1.0     0.0000000000        0.0000000000        4.3463697718

          INTERNUCLEAR DISTANCES (ANGS.)
          ------------------------------

                1 LI         2 H     

   1 LI      0.0000000    2.3000000 *
   2 H       2.3000000 *  0.0000000  

  * ... LESS THAN  3.000


     ATOMIC BASIS SET
     ----------------
 THE CONTRACTED PRIMITIVE FUNCTIONS HAVE BEEN UNNORMALIZED
 THE CONTRACTED BASIS FUNCTIONS ARE NOW NORMALIZED TO UNITY

  SHELL TYPE  PRIMITIVE        EXPONENT          CONTRACTION COEFFICIENT(S)

 LI        

      1   S       1           642.4189150    0.002142607810
      1   S       2            96.7985153    0.016208871501
      1   S       3            22.0911212    0.077315572504
      1   S       4             6.2010702    0.245786052013
      1   S       5             1.9351177    0.470189004025
      1   S       6             0.6367358    0.345470845019

      2   L       7             2.3249184   -0.035091745735    0.008941508043
      2   L       8             0.6324304   -0.191232843103    0.141009464046
      2   L       9             0.0790534    1.083987794916    0.945363695309

      3   L      10             0.0359620    1.000000000000    1.000000000000

      4   D      11             0.2000000    1.000000000000

 H         

      5   S      12            18.7311370    0.033494604338
      5   S      13             2.8253944    0.234726953484
      5   S      14             0.6401217    0.813757326146

      6   S      15             0.1612778    1.000000000000

      7   P      16             1.1000000    1.000000000000

 TOTAL NUMBER OF BASIS SET SHELLS             =    7
 NUMBER OF CARTESIAN GAUSSIAN BASIS FUNCTIONS =   20
 NUMBER OF ELECTRONS                          =    4
 CHARGE OF MOLECULE                           =    0
 SPIN MULTIPLICITY                            =    1
 NUMBER OF OCCUPIED ORBITALS (ALPHA)          =    2
 NUMBER OF OCCUPIED ORBITALS (BETA )          =    2
 TOTAL NUMBER OF ATOMS                        =    2
 THE NUCLEAR REPULSION ENERGY IS        0.6902311947

 THIS MOLECULE IS RECOGNIZED AS BEING LINEAR,
 ORBITAL LZ DEGENERACY TOLERANCE ETOLLZ= 1.00E-06

     $CONTRL OPTIONS
     ---------------
 SCFTYP=RHF          RUNTYP=ENERGY       EXETYP=RUN     
 MPLEVL=       0     CITYP =ALDET        CCTYP =NONE         VBTYP =NONE    
 DFTTYP=NONE         TDDFT =NONE    
 MULT  =       1     ICHARG=       0     NZVAR =       0     COORD =UNIQUE  
 PP    =NONE         RELWFN=NONE         LOCAL =NONE         NUMGRD=       F
 ISPHER=      -1     NOSYM =       0     MAXIT =      30     UNITS =ANGS    
 PLTORB=       F     MOLPLT=       F     AIMPAC=       F     FRIEND=        
 NPRINT=       7     IREST =       0     GEOM  =INPUT   
 NORMF =       0     NORMP =       0     ITOL  =      20     ICUT  =       9
 INTTYP=BEST         GRDTYP=BEST         QMTTOL= 1.0E-06

     $SYSTEM OPTIONS
     ---------------
  REPLICATED MEMORY=     1000000 WORDS (ON EVERY NODE).
 DISTRIBUTED MEMDDI=           0 MILLION WORDS IN AGGREGATE,
 MEMDDI DISTRIBUTED OVER   1 PROCESSORS IS           0 WORDS/PROCESSOR.
 TOTAL MEMORY REQUESTED ON EACH PROCESSOR=     1000000 WORDS.
 TIMLIM=      525600.00 MINUTES, OR     365.0 DAYS.
 PARALL= F  BALTYP=  DLB     KDIAG=    0  COREFL= F
 MXSEQ2=     300 MXSEQ3=     150  mem10=         0

          ----------------
          PROPERTIES INPUT
          ----------------

     MOMENTS            FIELD           POTENTIAL          DENSITY
 IEMOM =       1   IEFLD =       0   IEPOT =       0   IEDEN =       0
 WHERE =COMASS     WHERE =NUCLEI     WHERE =NUCLEI     WHERE =NUCLEI  
 OUTPUT=BOTH       OUTPUT=BOTH       OUTPUT=BOTH       OUTPUT=BOTH    
 IEMINT=       0   IEFINT=       0                     IEDINT=       0
                                                       MORB  =       0
          EXTRAPOLATION IN EFFECT
          SOSCF IN EFFECT
 ORBITAL PRINTING OPTION: NPREO=     1    20     2     1

     -------------------------------
     INTEGRAL TRANSFORMATION OPTIONS
     -------------------------------
     NWORD  =            0
     CUTOFF = 1.0E-09     MPTRAN =       0
     DIRTRF =       F     AOINTS =DUP     

          ----------------------
          INTEGRAL INPUT OPTIONS
          ----------------------
 NOPK  =       1 NORDER=       0 SCHWRZ=       F

     ------------------------------------------
     THE POINT GROUP IS CNV, NAXIS= 2, ORDER= 4
     ------------------------------------------

     DIMENSIONS OF THE SYMMETRY SUBSPACES ARE
 A1  =   11     A2  =    1     B1  =    4     B2  =    4

 ..... DONE SETTING UP THE RUN .....
 STEP CPU TIME =     0.00 TOTAL CPU TIME =        0.0 (    0.0 MIN)
 TOTAL WALL CLOCK TIME=        0.0 SECONDS, CPU UTILIZATION IS   0.00%

          ********************
          1 ELECTRON INTEGRALS
          ********************
 ...... END OF ONE-ELECTRON INTEGRALS ......
 STEP CPU TIME =     0.00 TOTAL CPU TIME =        0.0 (    0.0 MIN)
 TOTAL WALL CLOCK TIME=        0.0 SECONDS, CPU UTILIZATION IS   0.00%

          -------------
          GUESS OPTIONS
          -------------
          GUESS =HUCKEL            NORB  =       0          NORDER=       0
          MIX   =       F          PRTMO =       F          PUNMO =       F
          TOLZ  = 1.0E-08          TOLE  = 1.0E-05
          SYMDEN=       F          PURIFY=       F

 INITIAL GUESS ORBITALS GENERATED BY HUCKEL   ROUTINE.
 HUCKEL GUESS REQUIRES      4469 WORDS.

 SYMMETRIES FOR INITIAL GUESS ORBITALS FOLLOW.   BOTH SET(S).
     2 ORBITALS ARE OCCUPIED (    1 CORE ORBITALS).
     2=A1       3=A1       4=A1       5=A1       6=A1       7=A1       8=A1  
     9=A1      10=A1      11=A1      12=A2  
 ...... END OF INITIAL ORBITAL SELECTION ......
 STEP CPU TIME =     0.00 TOTAL CPU TIME =        0.0 (    0.0 MIN)
 TOTAL WALL CLOCK TIME=        0.0 SECONDS, CPU UTILIZATION IS   0.00%

                    ----------------------
                    AO INTEGRAL TECHNOLOGY
                    ----------------------
     S,P,L SHELL ROTATED AXIS INTEGRALS, REPROGRAMMED BY
        KAZUYA ISHIMURA (IMS) AND JOSE SIERRA (SYNSTAR).
     S,P,D,L SHELL ROTATED AXIS INTEGRALS PROGRAMMED BY
        KAZUYA ISHIMURA (INSTITUTE FOR MOLECULAR SCIENCE).
     S,P,D,F,G SHELL TO TOTAL QUARTET ANGULAR MOMENTUM SUM 5,
        ERIC PROGRAM BY GRAHAM FLETCHER (ELORET AND NASA ADVANCED
        SUPERCOMPUTING DIVISION, AMES RESEARCH CENTER).
     S,P,D,F,G,L SHELL GENERAL RYS QUADRATURE PROGRAMMED BY
        MICHEL DUPUIS (PACIFIC NORTHWEST NATIONAL LABORATORY).

          --------------------
          2 ELECTRON INTEGRALS
          --------------------

 THE -PK- OPTION IS OFF, THE INTEGRALS ARE NOT IN SUPERMATRIX FORM.
 STORING   15000 INTEGRALS/RECORD ON DISK, USING 12 BYTES/INTEGRAL.
 TWO ELECTRON INTEGRAL EVALUATION REQUIRES   90424 WORDS OF MEMORY.
 II,JST,KST,LST =  1  1  1  1 NREC =         1 INTLOC =    1
 II,JST,KST,LST =  2  1  1  1 NREC =         1 INTLOC =    2
 II,JST,KST,LST =  3  1  1  1 NREC =         1 INTLOC =   34
 II,JST,KST,LST =  4  1  1  1 NREC =         1 INTLOC =  214
 II,JST,KST,LST =  5  1  1  1 NREC =         1 INTLOC = 1189
 II,JST,KST,LST =  6  1  1  1 NREC =         1 INTLOC = 1867
 II,JST,KST,LST =  7  1  1  1 NREC =         1 INTLOC = 2713
 TOTAL NUMBER OF NONZERO TWO-ELECTRON INTEGRALS =                5596
          1 INTEGRAL RECORDS WERE STORED ON DISK FILE  8.
  ...... END OF TWO-ELECTRON INTEGRALS .....
 STEP CPU TIME =     0.02 TOTAL CPU TIME =        0.0 (    0.0 MIN)
 TOTAL WALL CLOCK TIME=        0.0 SECONDS, CPU UTILIZATION IS  66.67%

          --------------------------
                 RHF SCF CALCULATION
          --------------------------

     NUCLEAR ENERGY =         0.6902311947
     MAXIT =   30     NPUNCH=    2
     EXTRAP=T  DAMP=F  SHIFT=F  RSTRCT=F  DIIS=F  DEM=F  SOSCF=T
     DENSITY MATRIX CONV=  1.00E-06
     SOSCF WILL OPTIMIZE      36 ORBITAL ROTATIONS, SOGTOL=   0.250
     MEMORY REQUIRED FOR RHF ITERS=     33224 WORDS.

 ITER EX DEM     TOTAL ENERGY        E CHANGE  DENSITY CHANGE     ORB. GRAD
   1  0  0       -7.7757035329    -7.7757035329   0.474906053   0.000000000
          ---------------START SECOND ORDER SCF---------------
   2  1  0       -7.9421120545    -0.1664085217   0.138719852   0.028657898
   3  2  0       -7.9522334904    -0.0101214358   0.029795778   0.011417539
   4  3  0       -7.9527138904    -0.0004804001   0.003648655   0.000521095
   5  4  0       -7.9527171502    -0.0000032598   0.000253811   0.000058021
   6  5  0       -7.9527172151    -0.0000000649   0.000050301   0.000006723
   7  6  0       -7.9527172158    -0.0000000006   0.000004762   0.000000954
   8  7  0       -7.9527172158    -0.0000000000   0.000000302   0.000000092
   9  8  0       -7.9527172158    -0.0000000000   0.000000072   0.000000011

          -----------------
          DENSITY CONVERGED
          -----------------
     TIME TO FORM FOCK OPERATORS=       0.0 SECONDS (       0.0 SEC/ITER)
     TIME TO SOLVE SCF EQUATIONS=       0.0 SECONDS (       0.0 SEC/ITER)

 FINAL RHF ENERGY IS       -7.9527172158 AFTER   9 ITERATIONS

 LZ VALUE ANALYSIS FOR THE MOS
 ----------------------------------------
 MO     1 (    1) HAS LZ(WEIGHT)= 0.00(100.0%) 
 MO     2 (    2) HAS LZ(WEIGHT)= 0.00(100.0%) 
 MO     3 (    3) HAS LZ(WEIGHT)= 0.00(100.0%) 
 MO     4 (    4) HAS LZ(WEIGHT)=-1.00( 50.0%)  1.00( 50.0%) 
 MO     5 (    4) HAS LZ(WEIGHT)=-1.00( 50.0%)  1.00( 50.0%) 
 MO     6 (    5) HAS LZ(WEIGHT)= 0.00(100.0%) 
 MO     7 (    6) HAS LZ(WEIGHT)= 0.00(100.0%) 
 MO     8 (    7) HAS LZ(WEIGHT)=-1.00( 50.0%)  1.00( 50.0%) 
 MO     9 (    7) HAS LZ(WEIGHT)=-1.00( 50.0%)  1.00( 50.0%) 
 MO    10 (    8) HAS LZ(WEIGHT)= 0.00(100.0%) 
 MO    11 (    9) HAS LZ(WEIGHT)=-2.00( 50.0%)  2.00( 50.0%) 
 MO    12 (    9) HAS LZ(WEIGHT)=-2.00( 50.0%)  2.00( 50.0%) 
 MO    13 (   10) HAS LZ(WEIGHT)=-1.00( 50.0%)  1.00( 50.0%) 
 MO    14 (   10) HAS LZ(WEIGHT)=-1.00( 50.0%)  1.00( 50.0%) 
 MO    15 (   11) HAS LZ(WEIGHT)= 0.00(100.0%) 
 MO    16 (   12) HAS LZ(WEIGHT)= 0.00(100.0%) 
 MO    17 (   13) HAS LZ(WEIGHT)= 0.00(100.0%) 
 MO    18 (   14) HAS LZ(WEIGHT)=-1.00( 50.0%)  1.00( 50.0%) 
 MO    19 (   14) HAS LZ(WEIGHT)=-1.00( 50.0%)  1.00( 50.0%) 
 MO    20 (   15) HAS LZ(WEIGHT)= 0.00(100.0%) 

          ------------
          EIGENVECTORS
          ------------

                      1          2          3          4          5
                   -2.5050    -0.2611    -0.0079     0.0503     0.0503
                     A1         A1         A1         B1         B2  
    1  LI 1  S    0.998738  -0.092079  -0.149675  -0.000000  -0.000000
    2  LI 1  S   -0.011215   0.085452  -0.232848  -0.000000  -0.000000
    3  LI 1  X    0.000000  -0.000000  -0.000000   0.080184  -0.000000
    4  LI 1  Y    0.000000  -0.000000  -0.000000  -0.000000   0.080184
    5  LI 1  Z   -0.007056   0.146517  -0.171458  -0.000000  -0.000000
    6  LI 1  S    0.000849   0.285132   0.873567  -0.000000  -0.000000
    7  LI 1  X    0.000000  -0.000000  -0.000000   0.933824  -0.000000
    8  LI 1  Y    0.000000  -0.000000  -0.000000  -0.000000   0.933824
    9  LI 1  Z    0.004072   0.098752  -0.480553  -0.000000  -0.000000
   10  LI 1 XX    0.009023   0.007749   0.058572  -0.000000  -0.000000
   11  LI 1 YY    0.009023   0.007749   0.058572  -0.000000  -0.000000
   12  LI 1 ZZ    0.008159   0.041361   0.068208  -0.000000  -0.000000
   13  LI 1 XY    0.000000  -0.000000  -0.000000  -0.000000  -0.000000
   14  LI 1 XZ    0.000000  -0.000000  -0.000000  -0.034883  -0.000000
   15  LI 1 YZ    0.000000  -0.000000  -0.000000  -0.000000  -0.034883
   16  H  2  S    0.000163   0.260805  -0.064471  -0.000000  -0.000000
   17  H  2  S    0.001830   0.473668  -0.081715  -0.000000  -0.000000
   18  H  2  X    0.000000  -0.000000  -0.000000   0.002820  -0.000000
   19  H  2  Y    0.000000  -0.000000  -0.000000  -0.000000   0.002820
   20  H  2  Z   -0.000202  -0.004437  -0.000928  -0.000000  -0.000000

                      6          7          8          9         10
                    0.1448     0.1858     0.2036     0.2036     0.2443
                     A1         A1         B1         B2         A1  
    1  LI 1  S   -0.072831   0.097930   0.000000   0.000000  -0.000879
    2  LI 1  S    0.597053   2.758062   0.000000   0.000000   1.650456
    3  LI 1  X    0.000000  -0.000000   1.667368   0.000000  -0.000000
    4  LI 1  Y    0.000000  -0.000000   0.000000   1.667368  -0.000000
    5  LI 1  Z   -0.682796  -0.716370   0.000000   0.000000   1.353089
    6  LI 1  S    0.083634  -2.367545   0.000000   0.000000  -0.988511
    7  LI 1  X    0.000000  -0.000000  -1.387849   0.000000  -0.000000
    8  LI 1  Y    0.000000  -0.000000   0.000000  -1.387849  -0.000000
    9  LI 1  Z    1.415049   0.142116   0.000000   0.000000  -0.833460
   10  LI 1 XX   -0.020528  -0.299877   0.000000   0.000000  -0.071336
   11  LI 1 YY   -0.020528  -0.299877   0.000000   0.000000  -0.071336
   12  LI 1 ZZ   -0.051436  -0.210289   0.000000   0.000000  -0.264952
   13  LI 1 XY    0.000000  -0.000000   0.000000   0.000000  -0.000000
   14  LI 1 XZ    0.000000  -0.000000  -0.075931   0.000000  -0.000000
   15  LI 1 YZ    0.000000  -0.000000   0.000000  -0.075931  -0.000000
   16  H  2  S   -0.100946   0.053074   0.000000   0.000000  -0.077831
   17  H  2  S   -0.698905   0.452062   0.000000   0.000000  -0.435625
   18  H  2  X    0.000000  -0.000000   0.001188   0.000000  -0.000000
   19  H  2  Y    0.000000  -0.000000   0.000000   0.001188  -0.000000
   20  H  2  Z   -0.001034  -0.003641   0.000000   0.000000  -0.012199

                     11         12         13         14         15
                    0.5528     0.5528     0.5613     0.5613     0.6506
                     A2         A1         B1         B2         A1  
    1  LI 1  S    0.000000  -0.000000  -0.000000  -0.000000  -0.032055
    2  LI 1  S    0.000000  -0.000000  -0.000000  -0.000000  -0.251091
    3  LI 1  X    0.000000  -0.000000   0.128922  -0.000000  -0.000000
    4  LI 1  Y    0.000000  -0.000000  -0.000000   0.128922  -0.000000
    5  LI 1  Z    0.000000  -0.000000  -0.000000  -0.000000   0.371624
    6  LI 1  S    0.000000  -0.000000  -0.000000  -0.000000   0.358539
    7  LI 1  X    0.000000  -0.000000  -0.073388  -0.000000  -0.000000
    8  LI 1  Y    0.000000  -0.000000  -0.000000  -0.073388  -0.000000
    9  LI 1  Z    0.000000  -0.000000  -0.000000  -0.000000   0.106607
   10  LI 1 XX    0.000000  -0.866025  -0.000000  -0.000000  -0.452479
   11  LI 1 YY    0.000000   0.866025  -0.000000  -0.000000  -0.452479
   12  LI 1 ZZ    0.000000  -0.000000  -0.000000  -0.000000   1.184773
   13  LI 1 XY    1.000000  -0.000000  -0.000000  -0.000000  -0.000000
   14  LI 1 XZ    0.000000  -0.000000   0.994923  -0.000000  -0.000000
   15  LI 1 YZ    0.000000  -0.000000  -0.000000   0.994923  -0.000000
   16  H  2  S    0.000000  -0.000000  -0.000000  -0.000000  -0.019734
   17  H  2  S    0.000000  -0.000000  -0.000000  -0.000000  -0.719411
   18  H  2  X    0.000000  -0.000000   0.022572  -0.000000  -0.000000
   19  H  2  Y    0.000000  -0.000000  -0.000000   0.022572  -0.000000
   20  H  2  Z    0.000000  -0.000000  -0.000000  -0.000000  -0.034160

                     16         17         18         19         20
                    1.1927     1.2752     2.4721     2.4721     2.6204
                     A1         A1         B1         B2         A1  
    1  LI 1  S    0.107798   0.011172  -0.000000  -0.000000  -0.020796
    2  LI 1  S    9.212567   1.958302  -0.000000  -0.000000  -0.584696
    3  LI 1  X   -0.000000  -0.000000  -0.037307  -0.000000  -0.000000
    4  LI 1  Y   -0.000000  -0.000000  -0.000000  -0.037307  -0.000000
    5  LI 1  Z    0.022974   0.164681  -0.000000  -0.000000   0.288163
    6  LI 1  S   -2.867161  -0.247533  -0.000000  -0.000000   0.228919
    7  LI 1  X   -0.000000  -0.000000  -0.011196  -0.000000  -0.000000
    8  LI 1  Y   -0.000000  -0.000000  -0.000000  -0.011196  -0.000000
    9  LI 1  Z   -0.027085   0.274918  -0.000000  -0.000000  -0.069201
   10  LI 1 XX   -3.089277  -0.725259  -0.000000  -0.000000   0.121292
   11  LI 1 YY   -3.089277  -0.725259  -0.000000  -0.000000   0.121292
   12  LI 1 ZZ   -3.020373  -0.521600  -0.000000  -0.000000   0.516432
   13  LI 1 XY   -0.000000  -0.000000  -0.000000  -0.000000  -0.000000
   14  LI 1 XZ   -0.000000  -0.000000  -0.081881  -0.000000  -0.000000
   15  LI 1 YZ   -0.000000  -0.000000  -0.000000  -0.081881  -0.000000
   16  H  2  S   -0.295608   1.334570  -0.000000  -0.000000   0.111595
   17  H  2  S    0.179779  -1.504914  -0.000000  -0.000000  -0.334119
   18  H  2  X   -0.000000  -0.000000   1.002412  -0.000000  -0.000000
   19  H  2  Y   -0.000000  -0.000000  -0.000000   1.002412  -0.000000
   20  H  2  Z    0.023098  -0.033209  -0.000000  -0.000000   1.032023
 ...... END OF RHF CALCULATION ......
 STEP CPU TIME =     0.00 TOTAL CPU TIME =        0.0 (    0.0 MIN)
 TOTAL WALL CLOCK TIME=        0.3 SECONDS, CPU UTILIZATION IS   7.41%

     ----------------------------------------------------------------
     PROPERTY VALUES FOR THE RHF   SELF-CONSISTENT FIELD WAVEFUNCTION
     ----------------------------------------------------------------

          -----------------
          ENERGY COMPONENTS
          -----------------

         WAVEFUNCTION NORMALIZATION =       1.0000000000

                ONE ELECTRON ENERGY =     -11.7536771157
                TWO ELECTRON ENERGY =       3.1107287053
           NUCLEAR REPULSION ENERGY =       0.6902311947
                                      ------------------
                       TOTAL ENERGY =      -7.9527172158

 ELECTRON-ELECTRON POTENTIAL ENERGY =       3.1107287053
  NUCLEUS-ELECTRON POTENTIAL ENERGY =     -19.5927852690
   NUCLEUS-NUCLEUS POTENTIAL ENERGY =       0.6902311947
                                      ------------------
             TOTAL POTENTIAL ENERGY =     -15.7918253690
               TOTAL KINETIC ENERGY =       7.8391081533
                 VIRIAL RATIO (V/T) =       2.0144926005

  ...... PI ENERGY ANALYSIS ......

 ENERGY ANALYSIS:
            FOCK ENERGY=     -5.5322196874
          BARE H ENERGY=    -11.7536771157
     ELECTRONIC ENERGY =     -8.6429484016
         KINETIC ENERGY=      7.8391081533
          N-N REPULSION=      0.6902311947
           TOTAL ENERGY=     -7.9527172069
        SIGMA PART(1+2)=     -8.6429484016
               (K,V1,2)=      7.8391081533    -19.5927852690      3.1107287142
           PI PART(1+2)=      0.0000000000
               (K,V1,2)=      0.0000000000      0.0000000000      0.0000000000
  SIGMA SKELETON, ERROR=     -7.9527172069      0.0000000000
             MIXED PART= 0.00000E+00 0.00000E+00 0.00000E+00 0.00000E+00
 ...... END OF PI ENERGY ANALYSIS ......

          ---------------------------------------
          MULLIKEN AND LOWDIN POPULATION ANALYSES
          ---------------------------------------

               ----- POPULATIONS IN EACH AO -----
                             MULLIKEN      LOWDIN
              1  LI 1  S      1.99811     1.98076
              2  LI 1  S      0.09400     0.14561
              3  LI 1  X      0.00000     0.00000
              4  LI 1  Y      0.00000     0.00000
              5  LI 1  Z      0.15865     0.17712
              6  LI 1  S      0.34297     0.26197
              7  LI 1  X      0.00000     0.00000
              8  LI 1  Y      0.00000     0.00000
              9  LI 1  Z      0.10325     0.14748
             10  LI 1 XX      0.00666     0.02608
             11  LI 1 YY      0.00666     0.02608
             12  LI 1 ZZ      0.04574     0.11273
             13  LI 1 XY      0.00000     0.00000
             14  LI 1 XZ      0.00000     0.00000
             15  LI 1 YZ      0.00000     0.00000
             16  H  2  S      0.36007     0.38346
             17  H  2  S      0.88355     0.73854
             18  H  2  X      0.00000     0.00000
             19  H  2  Y      0.00000     0.00000
             20  H  2  Z      0.00033     0.00018

          ----- MULLIKEN ATOMIC OVERLAP POPULATIONS -----
          (OFF-DIAGONAL ELEMENTS NEED TO BE MULTIPLIED BY 2)

             1           2

    1    2.4221893
    2    0.3338563   0.9100981

          TOTAL MULLIKEN AND LOWDIN ATOMIC POPULATIONS
       ATOM         MULL.POP.    CHARGE          LOW.POP.     CHARGE
    1 LI            2.756046    0.243954         2.877828    0.122172
    2 H             1.243954   -0.243954         1.122172   -0.122172

          ---------------------
          ELECTROSTATIC MOMENTS
          ---------------------

 POINT   1           X           Y           Z (BOHR)    CHARGE
                 0.000000    0.000000    0.545922       -0.00 (A.U.)
         DX          DY          DZ         /D/  (DEBYE)
     0.000000    0.000000   -7.482164    7.482164
 ...... END OF PROPERTY EVALUATION ......
 STEP CPU TIME =     0.02 TOTAL CPU TIME =        0.0 (    0.0 MIN)
 TOTAL WALL CLOCK TIME=        0.3 SECONDS, CPU UTILIZATION IS  14.81%

 DETERMINANT CI OPTIONS   NRNFG   NPFLG
 INTEGRAL TRANSFORMATION    1       0
 DIAGONALIZE HAMILTONIAN    1       0
 FORM 1E- DENSITY MATRIX    1       0
 FORM 2E- DENSITY MATRIX    0       0

     --------------------------------------------------
          AMES LABORATORY DETERMINANTAL FULL CI
     PROGRAM WRITTEN BY JOE IVANIC AND KLAUS RUEDENBERG
     --------------------------------------------------

 THE POINT GROUP                  =   C2V     
 THE STATE SYMMETRY               =   A1      
 NUMBER OF CORE ORBITALS          =    0
 NUMBER OF ACTIVE ORBITALS        =   20
 NUMBER OF ALPHA ELECTRONS        =    2 (   2 ACTIVE)
 NUMBER OF BETA ELECTRONS         =    2 (   2 ACTIVE)
 NUMBER OF OCCUPIED ORBITALS      =   20
 NUMBER OF CI STATES REQUESTED    =    1
 NUMBER OF CI STARTING VECTORS    =    1
 MAX. NO. OF CI EXPANSION VECTORS =   10
 SIZE OF INITIAL CI GUESS MATRIX  =  300
 MAX. NO. OF CI ITERS/STATE       =  100
 CI DIAGONALIZATION CRITERION     = 1.00E-06
 CI PROPERTIES WILL BE FOUND FOR ROOT NUMBER   1
 1E- DENSITY MATRIX OPTIONS ARE 1

 CORRELATION ENERGY ANALYSIS      =    F

 SYMMETRIES FOR THE   0 CORE,  20 ACTIVE ARE

   ACTIVE= A1    A1    A1    B1    B2    A1    A1    B1    B2    A1  
           A2    A1    B1    B2    A1    A1    A1    B1    B2    A1  

     --------------------------------------------
     PARTIAL TWO ELECTRON INTEGRAL TRANSFORMATION
     --------------------------------------------

 NUMBER OF CORE MOLECULAR ORBITALS     =    0
 NUMBER OF OCCUPIED MOLECULAR ORBITALS =   20
 TOTAL NUMBER OF MOLECULAR ORBITALS    =   20
 TOTAL NUMBER OF ATOMIC ORBITALS       =   20
 THRESHOLD FOR KEEPING TRANSFORMED 2E- INTEGRALS = 1.000E-09
 AO INTEGRALS WILL BE READ IN FROM DISK...

 PLAN A: REQUIREMENTS FOR FULLY IN-MEMORY TRANSFORMATION:
 # OF WORDS AVAILABLE =              1000000
 # OF WORDS NEEDED    =               146042

 CHOOSING IN MEMORY PARTIAL TRANSFORMATION...
 TOTAL NUMBER OF TRANSFORMED 2E- INTEGRALS KEPT =         5962
 ... END OF INTEGRAL TRANSFORMATION ...
 STEP CPU TIME =     0.00 TOTAL CPU TIME =        0.0 (    0.0 MIN)
 TOTAL WALL CLOCK TIME=        0.3 SECONDS, CPU UTILIZATION IS  14.29%

     --------------------------------------------------
          AMES LABORATORY DETERMINANTAL FULL CI
     PROGRAM WRITTEN BY JOE IVANIC AND KLAUS RUEDENBERG
     --------------------------------------------------

 THE NUMBER OF DETERMINANTS HAVING SPACE SYMMETRY A1 
 IN POINT GROUP C2V  WITH SZ=  0.0 IS           9826
 THE DETERMINANT FULL CI REQUIRES          451749 WORDS
 INITIAL CI VECTOR GUESS TIME  :          0.0
 INITIAL FULL CI ITERATION TIME:          0.0

 ITERATION      ENERGY           GRADIENT
     0       -7.9810135471     0.11296697
     1       -7.9835927922     0.00800407
     2       -7.9836650611     0.00384092
     3       -7.9836745296     0.00107043
     4       -7.9836762927     0.00058235
     5       -7.9836767578     0.00025743
     6       -7.9836768063     0.00006981
     7       -7.9836768100     0.00001811
     8       -7.9836768103     0.00000525
     9       -7.9836768103     0.00000124
    10       -7.9836768103     0.00000028

 CONVERGED STATE    1 ENERGY=       -7.9836768103 IN   10 ITERS

 ALL STATES CONVERGED.

 CI EIGENVECTORS WILL BE LABELED IN GROUP=C2V     
 PRINTING CI COEFFICIENTS LARGER THAN 5.000E-02

 STATE   1  ENERGY=        -7.9836768103  S=  0.00  SZ=  0.00  SPACE SYM=A1  

        ALPHA         |        BETA          | CI COEFFICIENT
----------------------|----------------------|---------------
 11000000000000000000 | 11000000000000000000 |   0.9717561520
 10000100000000000000 | 10000100000000000000 |  -0.0816439647
 10100000000000000000 | 10000100000000000000 |   0.0662340870
 10000100000000000000 | 10100000000000000000 |   0.0662340870
 10000000010000000000 | 10000000010000000000 |  -0.0632880884
 11000000000000000000 | 10100000000000000000 |   0.0628591631
 10100000000000000000 | 11000000000000000000 |   0.0628591631
 10100000000000000000 | 10100000000000000000 |  -0.0550291190
 10000100000000000000 | 10000000010000000000 |   0.0502022775
 10000000010000000000 | 10000100000000000000 |   0.0502022775
 ..... DONE WITH DETERMINANT CI COMPUTATION .....
 STEP CPU TIME =     0.24 TOTAL CPU TIME =        0.3 (    0.0 MIN)
 TOTAL WALL CLOCK TIME=        0.6 SECONDS, CPU UTILIZATION IS  48.28%

     ---------------------------
     ONE PARTICLE DENSITY MATRIX
     ---------------------------

 DENSITY MATRIX WILL BE SAVED FOR   1-TH STATE WITH S= 0.00

 CI EIGENSTATE   1 TOTAL ENERGY =       -7.9836768103

          NATURAL ORBITALS IN ATOMIC ORBITAL BASIS
          ----------------------------------------

                      1          2          3          4          5
                    1.9998     1.9068     0.0858     0.0036     0.0014
                     A1         A1         A1         A1         B2  
    1  LI 1  S    0.998739  -0.100544  -0.143348   0.036392   0.000000
    2  LI 1  S   -0.007327   0.126828   0.360404   0.679228   0.000000
    3  LI 1  X   -0.000000  -0.000000   0.000000  -0.000000   0.000000
    4  LI 1  Y   -0.000000  -0.000000   0.000000  -0.000000   0.663855
    5  LI 1  Z   -0.006525   0.138697   0.307991   1.075122   0.000000
    6  LI 1  S   -0.000577   0.306502   0.526485  -0.797522   0.000000
    7  LI 1  X   -0.000000  -0.000000   0.000000  -0.000000   0.000000
    8  LI 1  Y   -0.000000  -0.000000   0.000000  -0.000000   0.058817
    9  LI 1  Z    0.003816   0.081961   0.131483  -0.739164   0.000000
   10  LI 1 XX    0.008024   0.009580  -0.003736  -0.118537   0.000000
   11  LI 1 YY    0.008024   0.009580  -0.003736  -0.118537   0.000000
   12  LI 1 ZZ    0.007362   0.034926   0.074791   0.598643   0.000000
   13  LI 1 XY   -0.000000  -0.000000   0.000000  -0.000000   0.000000
   14  LI 1 XZ   -0.000000  -0.000000   0.000000  -0.000000   0.000000
   15  LI 1 YZ   -0.000000  -0.000000   0.000000  -0.000000   0.507299
   16  H  2  S   -0.000109   0.279898  -0.503022   0.372779   0.000000
   17  H  2  S    0.001136   0.434538  -0.520432  -0.664539   0.000000
   18  H  2  X   -0.000000  -0.000000   0.000000  -0.000000   0.000000
   19  H  2  Y   -0.000000  -0.000000   0.000000  -0.000000   0.429331
   20  H  2  Z   -0.000155  -0.002784  -0.008736  -0.303827   0.000000

                      6          7          8          9         10
                    0.0014     0.0006     0.0002     0.0002     0.0001
                     B1         A1         B2         B1         A1  
    1  LI 1  S    0.000000   0.061428  -0.000000  -0.000000   0.038320
    2  LI 1  S    0.000000  -0.282223  -0.000000  -0.000000   2.343876
    3  LI 1  X    0.663855  -0.000000  -0.000000  -0.528529  -0.000000
    4  LI 1  Y    0.000000  -0.000000  -0.528529  -0.000000  -0.000000
    5  LI 1  Z    0.000000   0.233797  -0.000000  -0.000000   0.630348
    6  LI 1  S    0.000000  -0.463726  -0.000000  -0.000000  -1.239680
    7  LI 1  X    0.058817  -0.000000  -0.000000   0.087975  -0.000000
    8  LI 1  Y    0.000000  -0.000000   0.087975  -0.000000  -0.000000
    9  LI 1  Z    0.000000  -0.305097  -0.000000  -0.000000  -0.551121
   10  LI 1 XX    0.000000   0.009463  -0.000000  -0.000000  -0.522817
   11  LI 1 YY    0.000000   0.009463  -0.000000  -0.000000  -0.522817
   12  LI 1 ZZ    0.000000   0.225320  -0.000000  -0.000000  -0.395263
   13  LI 1 XY    0.000000  -0.000000  -0.000000  -0.000000  -0.000000
   14  LI 1 XZ    0.507299  -0.000000  -0.000000  -0.199885  -0.000000
   15  LI 1 YZ    0.000000  -0.000000  -0.199885  -0.000000  -0.000000
   16  H  2  S    0.000000  -1.153699  -0.000000  -0.000000   0.058838
   17  H  2  S    0.000000   1.271287  -0.000000  -0.000000  -0.138786
   18  H  2  X    0.429331  -0.000000  -0.000000   0.895721  -0.000000
   19  H  2  Y    0.000000  -0.000000   0.895721  -0.000000  -0.000000
   20  H  2  Z    0.000000  -0.009559  -0.000000  -0.000000   0.906235

                     11         12         13         14         15
                    0.0001     0.0000     0.0000     0.0000     0.0000
                     A1         B1         B2         A1         A1  
    1  LI 1  S    0.114154  -0.000000  -0.000000   0.058265  -0.009597
    2  LI 1  S    8.339782  -0.000000  -0.000000   4.908935  -0.024528
    3  LI 1  X    0.000000  -1.441857  -0.000000  -0.000000   0.000000
    4  LI 1  Y    0.000000  -0.000000  -1.441857  -0.000000   0.000000
    5  LI 1  Z   -0.723805  -0.000000  -0.000000   0.806178  -0.433965
    6  LI 1  S   -3.365998  -0.000000  -0.000000  -0.829341   0.241099
    7  LI 1  X    0.000000   1.517953  -0.000000  -0.000000   0.000000
    8  LI 1  Y    0.000000  -0.000000   1.517953  -0.000000   0.000000
    9  LI 1  Z    0.252768  -0.000000  -0.000000  -0.054760   1.218734
   10  LI 1 XX   -2.402191  -0.000000  -0.000000  -1.950820  -0.421497
   11  LI 1 YY   -2.402191  -0.000000  -0.000000  -1.950820  -0.421497
   12  LI 1 ZZ   -2.403627  -0.000000  -0.000000  -2.006201   0.872752
   13  LI 1 XY    0.000000  -0.000000  -0.000000  -0.000000   0.000000
   14  LI 1 XZ    0.000000   0.345128  -0.000000  -0.000000   0.000000
   15  LI 1 YZ    0.000000  -0.000000   0.345128  -0.000000   0.000000
   16  H  2  S   -0.202104  -0.000000  -0.000000   0.190052   0.290590
   17  H  2  S    0.416838  -0.000000  -0.000000  -0.604660  -0.980322
   18  H  2  X    0.000000  -0.112313  -0.000000  -0.000000   0.000000
   19  H  2  Y    0.000000  -0.000000  -0.112313  -0.000000   0.000000
   20  H  2  Z   -0.247455  -0.000000  -0.000000  -0.062190   0.276890

                     16         17         18         19         20
                    0.0000     0.0000     0.0000     0.0000     0.0000
                     B2         B1         A2         A1         A1  
    1  LI 1  S   -0.000000  -0.000000   0.000000   0.000000  -0.072370
    2  LI 1  S   -0.000000  -0.000000   0.000000   0.000000  -0.171130
    3  LI 1  X   -0.000000   0.074555   0.000000   0.000000  -0.000000
    4  LI 1  Y    0.074555  -0.000000   0.000000   0.000000  -0.000000
    5  LI 1  Z   -0.000000  -0.000000   0.000000   0.000000   0.160579
    6  LI 1  S   -0.000000  -0.000000   0.000000   0.000000   1.030425
    7  LI 1  X   -0.000000  -0.698772   0.000000   0.000000  -0.000000
    8  LI 1  Y   -0.698772  -0.000000   0.000000   0.000000  -0.000000
    9  LI 1  Z   -0.000000  -0.000000   0.000000   0.000000  -0.728683
   10  LI 1 XX   -0.000000  -0.000000   0.000000   0.866025  -0.588699
   11  LI 1 YY   -0.000000  -0.000000   0.000000  -0.866025  -0.588699
   12  LI 1 ZZ   -0.000000  -0.000000   0.000000   0.000000   0.228904
   13  LI 1 XY   -0.000000  -0.000000   1.000000   0.000000  -0.000000
   14  LI 1 XZ   -0.000000   0.766250   0.000000   0.000000  -0.000000
   15  LI 1 YZ    0.766250  -0.000000   0.000000   0.000000  -0.000000
   16  H  2  S   -0.000000  -0.000000   0.000000   0.000000  -0.079463
   17  H  2  S   -0.000000  -0.000000   0.000000   0.000000   0.052865
   18  H  2  X   -0.000000  -0.078050   0.000000   0.000000  -0.000000
   19  H  2  Y   -0.078050  -0.000000   0.000000   0.000000  -0.000000
   20  H  2  Z   -0.000000  -0.000000   0.000000   0.000000   0.111989
 ..... DONE WITH ONE PARTICLE DENSITY MATRIX .....
 STEP CPU TIME =     0.00 TOTAL CPU TIME =        0.3 (    0.0 MIN)
 TOTAL WALL CLOCK TIME=        0.6 SECONDS, CPU UTILIZATION IS  48.28%

     --------------------------------------------------------
     ALDET CI PROPERTIES...FOR THE WAVEFUNCTION OF STATE    1
               USING THE EXPECTATION VALUE DENSITY
     --------------------------------------------------------

          -----------------
          ENERGY COMPONENTS
          -----------------

         WAVEFUNCTION NORMALIZATION =       1.0000000000

                ONE ELECTRON ENERGY =     -11.7351997175
                TWO ELECTRON ENERGY =       3.0612917125
           NUCLEAR REPULSION ENERGY =       0.6902311947
                                      ------------------
                       TOTAL ENERGY =      -7.9836768103

 ELECTRON-ELECTRON POTENTIAL ENERGY =       3.0612917125
  NUCLEUS-ELECTRON POTENTIAL ENERGY =     -19.6320616894
   NUCLEUS-NUCLEUS POTENTIAL ENERGY =       0.6902311947
                                      ------------------
             TOTAL POTENTIAL ENERGY =     -15.8805387822
               TOTAL KINETIC ENERGY =       7.8968619719
                 VIRIAL RATIO (V/T) =       2.0109935869

          ---------------------------------------
          MULLIKEN AND LOWDIN POPULATION ANALYSES
          ---------------------------------------

               ----- POPULATIONS IN EACH AO -----
                             MULLIKEN      LOWDIN
              1  LI 1  S      1.99806     1.98197
              2  LI 1  S      0.16627     0.18228
              3  LI 1  X      0.00071     0.00058
              4  LI 1  Y      0.00071     0.00058
              5  LI 1  Z      0.13467     0.14665
              6  LI 1  S      0.40336     0.30850
              7  LI 1  X      0.00006     0.00019
              8  LI 1  Y      0.00006     0.00019
              9  LI 1  Z      0.07580     0.11499
             10  LI 1 XX      0.00781     0.04037
             11  LI 1 YY      0.00781     0.04037
             12  LI 1 ZZ      0.04128     0.11795
             13  LI 1 XY      0.00000     0.00000
             14  LI 1 XZ      0.00038     0.00038
             15  LI 1 YZ      0.00038     0.00038
             16  H  2  S      0.39213     0.40203
             17  H  2  S      0.76875     0.66065
             18  H  2  X      0.00044     0.00044
             19  H  2  Y      0.00044     0.00044
             20  H  2  Z      0.00089     0.00107

          ----- MULLIKEN ATOMIC OVERLAP POPULATIONS -----
          (OFF-DIAGONAL ELEMENTS NEED TO BE MULTIPLIED BY 2)

             1           2

    1    2.5668184
    2    0.2705386   0.8921044

          TOTAL MULLIKEN AND LOWDIN ATOMIC POPULATIONS
       ATOM         MULL.POP.    CHARGE          LOW.POP.     CHARGE
    1 LI            2.837357    0.162643         2.935365    0.064635
    2 H             1.162643   -0.162643         1.064635   -0.064635

          ---------------------
          ELECTROSTATIC MOMENTS
          ---------------------

 POINT   1           X           Y           Z (BOHR)    CHARGE
                 0.000000    0.000000    0.545922        0.00 (A.U.)
         DX          DY          DZ         /D/  (DEBYE)
     0.000000    0.000000   -6.386950    6.386950
 ...... END OF PROPERTY EVALUATION ......
 STEP CPU TIME =     0.00 TOTAL CPU TIME =        0.3 (    0.0 MIN)
 TOTAL WALL CLOCK TIME=        0.6 SECONDS, CPU UTILIZATION IS  48.28%
               580000  WORDS OF DYNAMIC MEMORY USED
 EXECUTION OF GAMESS TERMINATED NORMALLY Thu Jan 17 17:47:28 2019
 DDI: 263640 bytes (0.3 MB / 0 MWords) used by master data server.

 ----------------------------------------
 CPU timing information for all processes
 ========================================
 0: 0.235 + 0.59 = 0.294
 1: 0.10 + 0.48 = 0.59
 ----------------------------------------
 ddikick.x: exited gracefully.
unset echo
----- accounting info -----
Files used on the master node bach.ad64.riken.go.jp were:
-rw-------  1 maho  staff      280  1 17 17:47 .//LiH.631g/2.3/LiH.631g.fullCI.2.3.gamess.F05
-rw-r--r--  1 maho  staff   180016  1 17 17:47 .//LiH.631g/2.3/LiH.631g.fullCI.2.3.gamess.F08
-rw-r--r--  1 maho  staff   181704  1 17 17:47 .//LiH.631g/2.3/LiH.631g.fullCI.2.3.gamess.F09
-rw-r--r--  1 maho  staff  1832320  1 17 17:47 .//LiH.631g/2.3/LiH.631g.fullCI.2.3.gamess.F10
-rw-r--r--  1 maho  staff    78640  1 17 17:47 .//LiH.631g/2.3/LiH.631g.fullCI.2.3.gamess.F12
-rw-r--r--  1 maho  staff    14499  1 17 17:47 .//LiH.631g/2.3/LiH.631g.fullCI.2.3.gamess.dat
-rw-------  1 maho  staff      280  1 17 17:47 .//LiH.631g/2.3/LiH.631g.fullCI.2.3.gamess.inp
-rw-r--r--  1 maho  staff    42990  1 17 17:47 .//LiH.631g/2.3/LiH.631g.fullCI.2.3.gamess.log
ls: No match.
ls: No match.
ls: No match.
2019年 1月17日 木曜日 17時47分31秒 JST
0.354u 0.207s 0:03.98 13.8%	0+0k 0+0io 0pf+0w
