----- GAMESS execution script 'rungms' -----
This job is running on host bach.ad64.riken.go.jp
under operating system Darwin at 2019年 1月17日 木曜日 17時51分51秒 JST
Available scratch disk space (Kbyte units) at beginning of the job is
Filesystem   1024-blocks       Used Available Capacity iused      ifree %iused  Mounted on
/dev/disk2s2  1953178672 1144754060 808424612    59%  984493 4293982786    0%   /Volumes/Users
GAMESS temporary binary files will be written to ./
GAMESS supplementary output files will be written to ./
Copying input file LiH.631g/4.1/LiH.631g.fullCI.4.1.gamess.inp to your run's scratch directory...
cp LiH.631g/4.1/LiH.631g.fullCI.4.1.gamess.inp .//LiH.631g/4.1/LiH.631g.fullCI.4.1.gamess.F05
unset echo
/Volumes/Users/maho/bin/gamess//ddikick.x /Volumes/Users/maho/bin/gamess//gamess.00.x LiH.631g/4.1/LiH.631g.fullCI.4.1.gamess -ddi 1 1 bach.ad64.riken.go.jp -scr ./

 Distributed Data Interface kickoff program.
 Initiating 1 compute processes on 1 nodes to run the following command:
 /Volumes/Users/maho/bin/gamess//gamess.00.x LiH.631g/4.1/LiH.631g.fullCI.4.1.gamess 

          ******************************************************
          *         GAMESS VERSION = 18 AUG 2016 (R1)          *
          *             FROM IOWA STATE UNIVERSITY             *
          * M.W.SCHMIDT, K.K.BALDRIDGE, J.A.BOATZ, S.T.ELBERT, *
          *   M.S.GORDON, J.H.JENSEN, S.KOSEKI, N.MATSUNAGA,   *
          *          K.A.NGUYEN, S.J.SU, T.L.WINDUS,           *
          *       TOGETHER WITH M.DUPUIS, J.A.MONTGOMERY       *
          *         J.COMPUT.CHEM.  14, 1347-1363(1993)        *
          **************** 64 BIT APPLE VERSION ****************

  SINCE 1993, STUDENTS AND POSTDOCS WORKING AT IOWA STATE UNIVERSITY
  AND ALSO IN THEIR VARIOUS JOBS AFTER LEAVING ISU HAVE MADE IMPORTANT
  CONTRIBUTIONS TO THE CODE:
     IVANA ADAMOVIC, CHRISTINE AIKENS, YURI ALEXEEV, POOJA ARORA,
     ANDREY ASADCHEV, ROB BELL, PRADIPTA BANDYOPADHYAY, JONATHAN BENTZ,
     BRETT BODE, KURT BRORSEN, CALEB CARLIN, GALINA CHABAN, WEI CHEN,
     CHEOL HO CHOI, PAUL DAY, ALBERT DEFUSCO, NUWAN DESILVA, TIM DUDLEY,
     DMITRI FEDOROV, GRAHAM FLETCHER, MARK FREITAG, KURT GLAESEMANN,
     DAN KEMP, GRANT MERRILL, NORIYUKI MINEZAWA, JONATHAN MULLIN,
     TAKESHI NAGATA, SEAN NEDD, HEATHER NETZLOFF, BOSILJKA NJEGIC, RYAN OLSON,
     MIKE PAK, SPENCER PRUITT, LUKE ROSKOP, JIM SHOEMAKER, LYUDMILA SLIPCHENKO,
     TONY SMITH, SAROM SOK LEANG, JIE SONG, TETSUYA TAKETSUGU, SIMON WEBB,
     PENG XU, SOOHAENG YOO, FEDERICO ZAHARIEV

  ADDITIONAL CODE HAS BEEN PROVIDED BY COLLABORATORS IN OTHER GROUPS:
     IOWA STATE UNIVERSITY:
          JOE IVANIC, AARON WEST, LAIMUTIS BYTAUTAS, KLAUS RUEDENBERG
     UNIVERSITY OF TOKYO: KIMIHIKO HIRAO, TAKAHITO NAKAJIMA,
          TAKAO TSUNEDA, MUNEAKI KAMIYA, SUSUMU YANAGISAWA,
          KIYOSHI YAGI, MAHITO CHIBA, SEIKEN TOKURA, NAOAKI KAWAKAMI
     UNIVERSITY OF AARHUS: FRANK JENSEN
     UNIVERSITY OF IOWA: VISVALDAS KAIRYS, HUI LI
     NATIONAL INST. OF STANDARDS AND TECHNOLOGY: WALT STEVENS, DAVID GARMER
     UNIVERSITY OF PISA: BENEDETTA MENNUCCI, JACOPO TOMASI
     UNIVERSITY OF MEMPHIS: HENRY KURTZ, PRAKASHAN KORAMBATH
     UNIVERSITY OF ALBERTA: TOBY ZENG, MARIUSZ KLOBUKOWSKI
     UNIVERSITY OF NEW ENGLAND: MARK SPACKMAN
     MIE UNIVERSITY: HIROAKI UMEDA
     NAT. INST. OF ADVANCED INDUSTRIAL SCIENCE AND TECHNOLOGY: KAZUO KITAURA
     MICHIGAN STATE UNIVERSITY:
          KAROL KOWALSKI, MARTA WLOCH, JEFFREY GOUR, JESSE LUTZ,
          WEI LI, PIOTR PIECUCH
     UNIVERSITY OF SILESIA: MONIKA MUSIAL, STANISLAW KUCHARSKI
     FACULTES UNIVERSITAIRES NOTRE-DAME DE LA PAIX:
          OLIVIER QUINET, BENOIT CHAMPAGNE
     UNIVERSITY OF CALIFORNIA - SANTA BARBARA: BERNARD KIRTMAN
     INSTITUTE FOR MOLECULAR SCIENCE:
          KAZUYA ISHIMURA, MICHIO KATOUDA, AND SHIGERU NAGASE
     UNIVERSITY OF NOTRE DAME: ANNA POMOGAEVA, DAN CHIPMAN
     KYUSHU UNIVERSITY:
          HARUYUKI NAKANO,
          FENG LONG GU, JACEK KORCHOWIEC, MARCIN MAKOWSKI, AND YURIKO AOKI,
          HIROTOSHI MORI AND EISAKU MIYOSHI
     PENNSYLVANIA STATE UNIVERSITY:
          TZVETELIN IORDANOV, CHET SWALINA, JONATHAN SKONE,
          SHARON HAMMES-SCHIFFER
     WASEDA UNIVERSITY:
          MASATO KOBAYASHI, TOMOKO AKAMA, TSUGUKI TOUMA,
          TAKESHI YOSHIKAWA, YASUHIRO IKABATA, JUNJI SEINO,
          YUYA NAKAJIMA, HIROMI NAKAI
     NANJING UNIVERSITY: SHUHUA LI
     UNIVERSITY OF NEBRASKA:
          PEIFENG SU, DEJUN SI, NANDUN THELLAMUREGE, YALI WANG, HUI LI
     UNIVERSITY OF ZURICH: ROBERTO PEVERATI, KIM BALDRIDGE
     N. COPERNICUS UNIVERSITY AND JACKSON STATE UNIVERSITY:
          MARIA BARYSZ
     UNIVERSITY OF COPENHAGEN: Jimmy Kromann, CASPER STEINMANN
     TOKYO INSTITUTE OF TECHNOLOGY: HIROYA NAKATA
     NAGOYA UNIVERSITY: YOSHIO NISHIMOTO, STEPHAN IRLE
     MOSCOW STATE UNIVERSITY: VLADIMIR MIRONOV

 EXECUTION OF GAMESS BEGUN Thu Jan 17 17:51:51 2019

            ECHO OF THE FIRST FEW INPUT CARDS -
 INPUT CARD> $CONTRL SCFTYP=RHF CITYP=ALDET $END                                            
 INPUT CARD> $GUESS  GUESS=HUCKEL $END                                                      
 INPUT CARD> $BASIS GBASIS=N31 NGAUSS=6 NDFUNC=1 NPFUNC=1 $END                              
 INPUT CARD> $CIDET SZ=0 GROUP=C2V NCORE=0 NACT=20 NELS=4 $END                              
 INPUT CARD> $DATA                                                                          
 INPUT CARD>LiH...HF...6-31G* basis                                                         
 INPUT CARD>Cnv   2                                                                         
 INPUT CARD>                                                                                
 INPUT CARD>Li    3.0    0.0      0.0     0.0                                               
 INPUT CARD>H     1.0    0.0      0.0     4.1                                               
 INPUT CARD> $END                                                                           
    1000000 WORDS OF MEMORY AVAILABLE

     BASIS OPTIONS
     -------------
     GBASIS=N31          IGAUSS=       6      POLAR=POPN31  
     NDFUNC=       1     NFFUNC=       0     DIFFSP=       F
     NPFUNC=       1      DIFFS=       F     BASNAM=        


     RUN TITLE
     ---------
 LiH...HF...6-31G* basis                                                         

 THE POINT GROUP OF THE MOLECULE IS CNV     
 THE ORDER OF THE PRINCIPAL AXIS IS     2

 ATOM      ATOMIC                      COORDINATES (BOHR)
           CHARGE         X                   Y                   Z
 LI          3.0     0.0000000000        0.0000000000        0.0000000000
 H           1.0     0.0000000000        0.0000000000        7.7478765497

          INTERNUCLEAR DISTANCES (ANGS.)
          ------------------------------

                1 LI         2 H     

   1 LI      0.0000000    4.1000000  
   2 H       4.1000000    0.0000000  

  * ... LESS THAN  3.000


     ATOMIC BASIS SET
     ----------------
 THE CONTRACTED PRIMITIVE FUNCTIONS HAVE BEEN UNNORMALIZED
 THE CONTRACTED BASIS FUNCTIONS ARE NOW NORMALIZED TO UNITY

  SHELL TYPE  PRIMITIVE        EXPONENT          CONTRACTION COEFFICIENT(S)

 LI        

      1   S       1           642.4189150    0.002142607810
      1   S       2            96.7985153    0.016208871501
      1   S       3            22.0911212    0.077315572504
      1   S       4             6.2010702    0.245786052013
      1   S       5             1.9351177    0.470189004025
      1   S       6             0.6367358    0.345470845019

      2   L       7             2.3249184   -0.035091745735    0.008941508043
      2   L       8             0.6324304   -0.191232843103    0.141009464046
      2   L       9             0.0790534    1.083987794916    0.945363695309

      3   L      10             0.0359620    1.000000000000    1.000000000000

      4   D      11             0.2000000    1.000000000000

 H         

      5   S      12            18.7311370    0.033494604338
      5   S      13             2.8253944    0.234726953484
      5   S      14             0.6401217    0.813757326146

      6   S      15             0.1612778    1.000000000000

      7   P      16             1.1000000    1.000000000000

 TOTAL NUMBER OF BASIS SET SHELLS             =    7
 NUMBER OF CARTESIAN GAUSSIAN BASIS FUNCTIONS =   20
 NUMBER OF ELECTRONS                          =    4
 CHARGE OF MOLECULE                           =    0
 SPIN MULTIPLICITY                            =    1
 NUMBER OF OCCUPIED ORBITALS (ALPHA)          =    2
 NUMBER OF OCCUPIED ORBITALS (BETA )          =    2
 TOTAL NUMBER OF ATOMS                        =    2
 THE NUCLEAR REPULSION ENERGY IS        0.3872028653

 THIS MOLECULE IS RECOGNIZED AS BEING LINEAR,
 ORBITAL LZ DEGENERACY TOLERANCE ETOLLZ= 1.00E-06

     $CONTRL OPTIONS
     ---------------
 SCFTYP=RHF          RUNTYP=ENERGY       EXETYP=RUN     
 MPLEVL=       0     CITYP =ALDET        CCTYP =NONE         VBTYP =NONE    
 DFTTYP=NONE         TDDFT =NONE    
 MULT  =       1     ICHARG=       0     NZVAR =       0     COORD =UNIQUE  
 PP    =NONE         RELWFN=NONE         LOCAL =NONE         NUMGRD=       F
 ISPHER=      -1     NOSYM =       0     MAXIT =      30     UNITS =ANGS    
 PLTORB=       F     MOLPLT=       F     AIMPAC=       F     FRIEND=        
 NPRINT=       7     IREST =       0     GEOM  =INPUT   
 NORMF =       0     NORMP =       0     ITOL  =      20     ICUT  =       9
 INTTYP=BEST         GRDTYP=BEST         QMTTOL= 1.0E-06

     $SYSTEM OPTIONS
     ---------------
  REPLICATED MEMORY=     1000000 WORDS (ON EVERY NODE).
 DISTRIBUTED MEMDDI=           0 MILLION WORDS IN AGGREGATE,
 MEMDDI DISTRIBUTED OVER   1 PROCESSORS IS           0 WORDS/PROCESSOR.
 TOTAL MEMORY REQUESTED ON EACH PROCESSOR=     1000000 WORDS.
 TIMLIM=      525600.00 MINUTES, OR     365.0 DAYS.
 PARALL= F  BALTYP=  DLB     KDIAG=    0  COREFL= F
 MXSEQ2=     300 MXSEQ3=     150  mem10=         0

          ----------------
          PROPERTIES INPUT
          ----------------

     MOMENTS            FIELD           POTENTIAL          DENSITY
 IEMOM =       1   IEFLD =       0   IEPOT =       0   IEDEN =       0
 WHERE =COMASS     WHERE =NUCLEI     WHERE =NUCLEI     WHERE =NUCLEI  
 OUTPUT=BOTH       OUTPUT=BOTH       OUTPUT=BOTH       OUTPUT=BOTH    
 IEMINT=       0   IEFINT=       0                     IEDINT=       0
                                                       MORB  =       0
          EXTRAPOLATION IN EFFECT
          SOSCF IN EFFECT
 ORBITAL PRINTING OPTION: NPREO=     1    20     2     1

     -------------------------------
     INTEGRAL TRANSFORMATION OPTIONS
     -------------------------------
     NWORD  =            0
     CUTOFF = 1.0E-09     MPTRAN =       0
     DIRTRF =       F     AOINTS =DUP     

          ----------------------
          INTEGRAL INPUT OPTIONS
          ----------------------
 NOPK  =       1 NORDER=       0 SCHWRZ=       F

     ------------------------------------------
     THE POINT GROUP IS CNV, NAXIS= 2, ORDER= 4
     ------------------------------------------

     DIMENSIONS OF THE SYMMETRY SUBSPACES ARE
 A1  =   11     A2  =    1     B1  =    4     B2  =    4

 ..... DONE SETTING UP THE RUN .....
 STEP CPU TIME =     0.00 TOTAL CPU TIME =        0.0 (    0.0 MIN)
 TOTAL WALL CLOCK TIME=        0.0 SECONDS, CPU UTILIZATION IS   0.00%

          ********************
          1 ELECTRON INTEGRALS
          ********************
 ...... END OF ONE-ELECTRON INTEGRALS ......
 STEP CPU TIME =     0.00 TOTAL CPU TIME =        0.0 (    0.0 MIN)
 TOTAL WALL CLOCK TIME=        0.0 SECONDS, CPU UTILIZATION IS   0.00%

          -------------
          GUESS OPTIONS
          -------------
          GUESS =HUCKEL            NORB  =       0          NORDER=       0
          MIX   =       F          PRTMO =       F          PUNMO =       F
          TOLZ  = 1.0E-08          TOLE  = 1.0E-05
          SYMDEN=       F          PURIFY=       F

 INITIAL GUESS ORBITALS GENERATED BY HUCKEL   ROUTINE.
 HUCKEL GUESS REQUIRES      4469 WORDS.

 SYMMETRIES FOR INITIAL GUESS ORBITALS FOLLOW.   BOTH SET(S).
     2 ORBITALS ARE OCCUPIED (    1 CORE ORBITALS).
     2=A1       3=A1       4=A1       5=A1       6=A1       7=A1       8=A1  
     9=A1      10=A1      11=A1      12=A2  
 ...... END OF INITIAL ORBITAL SELECTION ......
 STEP CPU TIME =     0.00 TOTAL CPU TIME =        0.0 (    0.0 MIN)
 TOTAL WALL CLOCK TIME=        0.0 SECONDS, CPU UTILIZATION IS   0.00%

                    ----------------------
                    AO INTEGRAL TECHNOLOGY
                    ----------------------
     S,P,L SHELL ROTATED AXIS INTEGRALS, REPROGRAMMED BY
        KAZUYA ISHIMURA (IMS) AND JOSE SIERRA (SYNSTAR).
     S,P,D,L SHELL ROTATED AXIS INTEGRALS PROGRAMMED BY
        KAZUYA ISHIMURA (INSTITUTE FOR MOLECULAR SCIENCE).
     S,P,D,F,G SHELL TO TOTAL QUARTET ANGULAR MOMENTUM SUM 5,
        ERIC PROGRAM BY GRAHAM FLETCHER (ELORET AND NASA ADVANCED
        SUPERCOMPUTING DIVISION, AMES RESEARCH CENTER).
     S,P,D,F,G,L SHELL GENERAL RYS QUADRATURE PROGRAMMED BY
        MICHEL DUPUIS (PACIFIC NORTHWEST NATIONAL LABORATORY).

          --------------------
          2 ELECTRON INTEGRALS
          --------------------

 THE -PK- OPTION IS OFF, THE INTEGRALS ARE NOT IN SUPERMATRIX FORM.
 STORING   15000 INTEGRALS/RECORD ON DISK, USING 12 BYTES/INTEGRAL.
 TWO ELECTRON INTEGRAL EVALUATION REQUIRES   90424 WORDS OF MEMORY.
 II,JST,KST,LST =  1  1  1  1 NREC =         1 INTLOC =    1
 II,JST,KST,LST =  2  1  1  1 NREC =         1 INTLOC =    2
 II,JST,KST,LST =  3  1  1  1 NREC =         1 INTLOC =   34
 II,JST,KST,LST =  4  1  1  1 NREC =         1 INTLOC =  214
 II,JST,KST,LST =  5  1  1  1 NREC =         1 INTLOC = 1189
 II,JST,KST,LST =  6  1  1  1 NREC =         1 INTLOC = 1804
 II,JST,KST,LST =  7  1  1  1 NREC =         1 INTLOC = 2638
 TOTAL NUMBER OF NONZERO TWO-ELECTRON INTEGRALS =                5258
          1 INTEGRAL RECORDS WERE STORED ON DISK FILE  8.
  ...... END OF TWO-ELECTRON INTEGRALS .....
 STEP CPU TIME =     0.02 TOTAL CPU TIME =        0.0 (    0.0 MIN)
 TOTAL WALL CLOCK TIME=        0.0 SECONDS, CPU UTILIZATION IS  66.67%

          --------------------------
                 RHF SCF CALCULATION
          --------------------------

     NUCLEAR ENERGY =         0.3872028653
     MAXIT =   30     NPUNCH=    2
     EXTRAP=T  DAMP=F  SHIFT=F  RSTRCT=F  DIIS=F  DEM=F  SOSCF=T
     DENSITY MATRIX CONV=  1.00E-06
     SOSCF WILL OPTIMIZE      36 ORBITAL ROTATIONS, SOGTOL=   0.250
     MEMORY REQUIRED FOR RHF ITERS=     33224 WORDS.

 ITER EX DEM     TOTAL ENERGY        E CHANGE  DENSITY CHANGE     ORB. GRAD
   1  0  0       -7.5173114682    -7.5173114682   1.134640962   0.000000000
          ---------------START SECOND ORDER SCF---------------
 SOSCF IS SCALING ROTATION ANGLE MATRIX, SQCDF=    0.147989
   2  1  0       -7.4662633031     0.0510481651   0.521116742   0.077064080
 SOSCF IS SCALING ROTATION ANGLE MATRIX, SQCDF=    1.563163
   3  2  0       -7.6800225197    -0.2137592165   1.353017570   0.109352366
 SOSCF IS SCALING ROTATION ANGLE MATRIX, SQCDF=    0.117234
   4  3  0       -7.7436186578    -0.0635961381   0.449833148   0.085544500
   5  4  0       -7.7989597889    -0.0553411312   0.249736106   0.079253506
   6  5  0       -7.8388209425    -0.0398611536   0.215283196   0.028622296
   7  6  0       -7.8521285089    -0.0133075663   0.084375908   0.005723957
   8  7  0       -7.8538179716    -0.0016894627   0.015486375   0.004456488
   9  8  0       -7.8539529843    -0.0001350128   0.003990012   0.000719641
  10  9  0       -7.8539603614    -0.0000073771   0.000914165   0.000270874
  11 10  0       -7.8539605498    -0.0000001884   0.000137820   0.000045369
  12 11  0       -7.8539605547    -0.0000000048   0.000006585   0.000002651
  13 12  0       -7.8539605547    -0.0000000000   0.000000533   0.000000294
  14 13  0       -7.8539605547    -0.0000000000   0.000000050   0.000000031

          -----------------
          DENSITY CONVERGED
          -----------------
     TIME TO FORM FOCK OPERATORS=       0.0 SECONDS (       0.0 SEC/ITER)
     TIME TO SOLVE SCF EQUATIONS=       0.0 SECONDS (       0.0 SEC/ITER)

 FINAL RHF ENERGY IS       -7.8539605547 AFTER  14 ITERATIONS

 LZ VALUE ANALYSIS FOR THE MOS
 ----------------------------------------
 MO     1 (    1) HAS LZ(WEIGHT)= 0.00(100.0%) 
 MO     2 (    2) HAS LZ(WEIGHT)= 0.00(100.0%) 
 MO     3 (    3) HAS LZ(WEIGHT)= 0.00(100.0%) 
 MO     4 (    4) HAS LZ(WEIGHT)=-1.00( 50.0%)  1.00( 50.0%) 
 MO     5 (    4) HAS LZ(WEIGHT)=-1.00( 50.0%)  1.00( 50.0%) 
 MO     6 (    5) HAS LZ(WEIGHT)= 0.00(100.0%) 
 MO     7 (    6) HAS LZ(WEIGHT)= 0.00(100.0%) 
 MO     8 (    7) HAS LZ(WEIGHT)=-1.00( 50.0%)  1.00( 50.0%) 
 MO     9 (    7) HAS LZ(WEIGHT)=-1.00( 50.0%)  1.00( 50.0%) 
 MO    10 (    8) HAS LZ(WEIGHT)= 0.00(100.0%) 
 MO    11 (    9) HAS LZ(WEIGHT)=-2.00( 50.0%)  2.00( 50.0%) 
 MO    12 (    9) HAS LZ(WEIGHT)=-2.00( 50.0%)  2.00( 50.0%) 
 MO    13 (   10) HAS LZ(WEIGHT)=-1.00( 50.0%)  1.00( 50.0%) 
 MO    14 (   10) HAS LZ(WEIGHT)=-1.00( 50.0%)  1.00( 50.0%) 
 MO    15 (   11) HAS LZ(WEIGHT)= 0.00(100.0%) 
 MO    16 (   12) HAS LZ(WEIGHT)= 0.00(100.0%) 
 MO    17 (   13) HAS LZ(WEIGHT)= 0.00(100.0%) 
 MO    18 (   14) HAS LZ(WEIGHT)=-1.00( 50.0%)  1.00( 50.0%) 
 MO    19 (   14) HAS LZ(WEIGHT)=-1.00( 50.0%)  1.00( 50.0%) 
 MO    20 (   15) HAS LZ(WEIGHT)= 0.00(100.0%) 

          ------------
          EIGENVECTORS
          ------------

                      1          2          3          4          5
                   -2.5809    -0.1931    -0.0440     0.0248     0.0248
                     A1         A1         A1         B1         B2  
    1  LI 1  S    0.998761  -0.090425  -0.161285  -0.000000  -0.000000
    2  LI 1  S   -0.012321  -0.064720   0.064032  -0.000000  -0.000000
    3  LI 1  X    0.000000  -0.000000  -0.000000   0.228898  -0.000000
    4  LI 1  Y    0.000000  -0.000000  -0.000000  -0.000000   0.228898
    5  LI 1  Z   -0.002967   0.000054  -0.106225  -0.000000  -0.000000
    6  LI 1  S    0.001971   0.470031   0.726342  -0.000000  -0.000000
    7  LI 1  X    0.000000  -0.000000  -0.000000   0.806619  -0.000000
    8  LI 1  Y    0.000000  -0.000000  -0.000000  -0.000000   0.806619
    9  LI 1  Z    0.002028   0.215329  -0.331655  -0.000000  -0.000000
   10  LI 1 XX    0.008809   0.025540   0.037778  -0.000000  -0.000000
   11  LI 1 YY    0.008809   0.025540   0.037778  -0.000000  -0.000000
   12  LI 1 ZZ    0.008658   0.043480   0.035319  -0.000000  -0.000000
   13  LI 1 XY    0.000000  -0.000000  -0.000000  -0.000000  -0.000000
   14  LI 1 XZ    0.000000  -0.000000  -0.000000  -0.027874  -0.000000
   15  LI 1 YZ    0.000000  -0.000000  -0.000000  -0.000000  -0.027874
   16  H  2  S    0.000049   0.240821  -0.101194  -0.000000  -0.000000
   17  H  2  S   -0.000203   0.588349  -0.252410  -0.000000  -0.000000
   18  H  2  X    0.000000  -0.000000  -0.000000   0.001148  -0.000000
   19  H  2  Y    0.000000  -0.000000  -0.000000  -0.000000   0.001148
   20  H  2  Z   -0.000008  -0.001284  -0.000926  -0.000000  -0.000000

                      6          7          8          9         10
                    0.0641     0.1505     0.1683     0.1683     0.2186
                     A1         A1         B1         B2         A1  
    1  LI 1  S   -0.044015   0.058479  -0.000000  -0.000000   0.067608
    2  LI 1  S    0.574340   2.262684  -0.000000  -0.000000   2.312446
    3  LI 1  X   -0.000000  -0.000000   1.656821  -0.000000  -0.000000
    4  LI 1  Y   -0.000000  -0.000000  -0.000000   1.656821  -0.000000
    5  LI 1  Z    0.262087  -1.203525  -0.000000  -0.000000   1.183801
    6  LI 1  S   -0.169533  -1.771300  -0.000000  -0.000000  -1.853582
    7  LI 1  X   -0.000000  -0.000000  -1.466676  -0.000000  -0.000000
    8  LI 1  Y   -0.000000  -0.000000  -0.000000  -1.466676  -0.000000
    9  LI 1  Z    0.669694   0.991034  -0.000000  -0.000000  -1.249127
   10  LI 1 XX   -0.005829  -0.228300  -0.000000  -0.000000  -0.198175
   11  LI 1 YY   -0.005829  -0.228300  -0.000000  -0.000000  -0.198175
   12  LI 1 ZZ   -0.090839  -0.174602  -0.000000  -0.000000  -0.222950
   13  LI 1 XY   -0.000000  -0.000000  -0.000000  -0.000000  -0.000000
   14  LI 1 XZ   -0.000000  -0.000000  -0.042953  -0.000000  -0.000000
   15  LI 1 YZ   -0.000000  -0.000000  -0.000000  -0.042953  -0.000000
   16  H  2  S   -0.113626   0.018605  -0.000000  -0.000000   0.043076
   17  H  2  S   -0.454510  -0.011420  -0.000000  -0.000000   0.376147
   18  H  2  X   -0.000000  -0.000000  -0.000969  -0.000000  -0.000000
   19  H  2  Y   -0.000000  -0.000000  -0.000000  -0.000969  -0.000000
   20  H  2  Z   -0.003545   0.001716  -0.000000  -0.000000   0.000732

                     11         12         13         14         15
                    0.5020     0.5020     0.5082     0.5082     0.5119
                     A2         A1         B1         B2         A1  
    1  LI 1  S    0.000000  -0.000000  -0.000000  -0.000000  -0.002184
    2  LI 1  S    0.000000  -0.000000  -0.000000  -0.000000   0.029411
    3  LI 1  X    0.000000  -0.000000   0.077655  -0.000000   0.000000
    4  LI 1  Y    0.000000  -0.000000  -0.000000   0.077655   0.000000
    5  LI 1  Z    0.000000  -0.000000  -0.000000  -0.000000   0.072369
    6  LI 1  S    0.000000  -0.000000  -0.000000  -0.000000   0.008915
    7  LI 1  X    0.000000  -0.000000  -0.040578  -0.000000   0.000000
    8  LI 1  Y    0.000000  -0.000000  -0.000000  -0.040578   0.000000
    9  LI 1  Z    0.000000  -0.000000  -0.000000  -0.000000  -0.015200
   10  LI 1 XX    0.000000  -0.866025  -0.000000  -0.000000  -0.510190
   11  LI 1 YY    0.000000   0.866025  -0.000000  -0.000000  -0.510190
   12  LI 1 ZZ    0.000000  -0.000000  -0.000000  -0.000000   0.984253
   13  LI 1 XY    1.000000  -0.000000  -0.000000  -0.000000   0.000000
   14  LI 1 XZ    0.000000  -0.000000   0.998688  -0.000000   0.000000
   15  LI 1 YZ    0.000000  -0.000000  -0.000000   0.998688   0.000000
   16  H  2  S    0.000000  -0.000000  -0.000000  -0.000000  -0.059035
   17  H  2  S    0.000000  -0.000000  -0.000000  -0.000000  -0.007848
   18  H  2  X    0.000000  -0.000000   0.000450  -0.000000   0.000000
   19  H  2  Y    0.000000  -0.000000  -0.000000   0.000450   0.000000
   20  H  2  Z    0.000000  -0.000000  -0.000000  -0.000000  -0.002825

                     16         17         18         19         20
                    1.1558     1.1977     2.4652     2.4652     2.4697
                     A1         A1         B1         B2         A1  
    1  LI 1  S    0.108541   0.047751  -0.000000  -0.000000  -0.003315
    2  LI 1  S    9.139168   2.551030  -0.000000  -0.000000   0.066546
    3  LI 1  X    0.000000  -0.000000   0.015878  -0.000000   0.000000
    4  LI 1  Y    0.000000  -0.000000  -0.000000   0.015878   0.000000
    5  LI 1  Z    0.001081   0.126424  -0.000000  -0.000000  -0.024706
    6  LI 1  S   -2.811787  -0.989745  -0.000000  -0.000000   0.027730
    7  LI 1  X    0.000000  -0.000000  -0.022987  -0.000000   0.000000
    8  LI 1  Y    0.000000  -0.000000  -0.000000  -0.022987   0.000000
    9  LI 1  Z    0.014944  -0.258078  -0.000000  -0.000000   0.057894
   10  LI 1 XX   -3.051135  -0.752014  -0.000000  -0.000000  -0.040589
   11  LI 1 YY   -3.051135  -0.752014  -0.000000  -0.000000  -0.040589
   12  LI 1 ZZ   -3.038858  -0.843613  -0.000000  -0.000000  -0.033888
   13  LI 1 XY    0.000000  -0.000000  -0.000000  -0.000000   0.000000
   14  LI 1 XZ    0.000000  -0.000000  -0.000560  -0.000000   0.000000
   15  LI 1 YZ    0.000000  -0.000000  -0.000000  -0.000560   0.000000
   16  H  2  S    0.306808  -1.277955  -0.000000  -0.000000   0.015066
   17  H  2  S   -0.197584   1.146982  -0.000000  -0.000000  -0.029720
   18  H  2  X    0.000000  -0.000000   1.000077  -0.000000   0.000000
   19  H  2  Y    0.000000  -0.000000  -0.000000   1.000077   0.000000
   20  H  2  Z   -0.011400   0.002286  -0.000000  -0.000000   1.000776
 ...... END OF RHF CALCULATION ......
 STEP CPU TIME =     0.02 TOTAL CPU TIME =        0.0 (    0.0 MIN)
 TOTAL WALL CLOCK TIME=        0.1 SECONDS, CPU UTILIZATION IS  44.44%

     ----------------------------------------------------------------
     PROPERTY VALUES FOR THE RHF   SELF-CONSISTENT FIELD WAVEFUNCTION
     ----------------------------------------------------------------

          -----------------
          ENERGY COMPONENTS
          -----------------

         WAVEFUNCTION NORMALIZATION =       1.0000000000

                ONE ELECTRON ENERGY =     -10.9343393911
                TWO ELECTRON ENERGY =       2.6931759710
           NUCLEAR REPULSION ENERGY =       0.3872028653
                                      ------------------
                       TOTAL ENERGY =      -7.8539605547

 ELECTRON-ELECTRON POTENTIAL ENERGY =       2.6931759710
  NUCLEUS-ELECTRON POTENTIAL ENERGY =     -18.7351030336
   NUCLEUS-NUCLEUS POTENTIAL ENERGY =       0.3872028653
                                      ------------------
             TOTAL POTENTIAL ENERGY =     -15.6547241973
               TOTAL KINETIC ENERGY =       7.8007636425
                 VIRIAL RATIO (V/T) =       2.0068194493

  ...... PI ENERGY ANALYSIS ......

 ENERGY ANALYSIS:
            FOCK ENERGY=     -5.5479874437
          BARE H ENERGY=    -10.9343393911
     ELECTRONIC ENERGY =     -8.2411634174
         KINETIC ENERGY=      7.8007636425
          N-N REPULSION=      0.3872028653
           TOTAL ENERGY=     -7.8539605521
        SIGMA PART(1+2)=     -8.2411634174
               (K,V1,2)=      7.8007636425    -18.7351030336      2.6931759737
           PI PART(1+2)=      0.0000000000
               (K,V1,2)=      0.0000000000      0.0000000000      0.0000000000
  SIGMA SKELETON, ERROR=     -7.8539605521      0.0000000000
             MIXED PART= 0.00000E+00 0.00000E+00 0.00000E+00 0.00000E+00
 ...... END OF PI ENERGY ANALYSIS ......

          ---------------------------------------
          MULLIKEN AND LOWDIN POPULATION ANALYSES
          ---------------------------------------

               ----- POPULATIONS IN EACH AO -----
                             MULLIKEN      LOWDIN
              1  LI 1  S      1.99798     1.97949
              2  LI 1  S     -0.06099     0.09861
              3  LI 1  X      0.00000     0.00000
              4  LI 1  Y      0.00000     0.00000
              5  LI 1  Z      0.00003     0.02449
              6  LI 1  S      0.49687     0.32105
              7  LI 1  X      0.00000     0.00000
              8  LI 1  Y      0.00000     0.00000
              9  LI 1  Z      0.17353     0.15419
             10  LI 1 XX      0.01591     0.02438
             11  LI 1 YY      0.01591     0.02438
             12  LI 1 ZZ      0.02812     0.03478
             13  LI 1 XY      0.00000     0.00000
             14  LI 1 XZ      0.00000     0.00000
             15  LI 1 YZ      0.00000     0.00000
             16  H  2  S      0.32026     0.38872
             17  H  2  S      1.01234     0.94980
             18  H  2  X      0.00000     0.00000
             19  H  2  Y      0.00000     0.00000
             20  H  2  Z      0.00003     0.00009

          ----- MULLIKEN ATOMIC OVERLAP POPULATIONS -----
          (OFF-DIAGONAL ELEMENTS NEED TO BE MULTIPLIED BY 2)

             1           2

    1    2.5161248
    2    0.1512430   1.1813892

          TOTAL MULLIKEN AND LOWDIN ATOMIC POPULATIONS
       ATOM         MULL.POP.    CHARGE          LOW.POP.     CHARGE
    1 LI            2.667368    0.332632         2.661379    0.338621
    2 H             1.332632   -0.332632         1.338621   -0.338621

          ---------------------
          ELECTROSTATIC MOMENTS
          ---------------------

 POINT   1           X           Y           Z (BOHR)    CHARGE
                 0.000000    0.000000    0.973165        0.00 (A.U.)
         DX          DY          DZ         /D/  (DEBYE)
     0.000000    0.000000  -11.348705   11.348705
 ...... END OF PROPERTY EVALUATION ......
 STEP CPU TIME =     0.00 TOTAL CPU TIME =        0.0 (    0.0 MIN)
 TOTAL WALL CLOCK TIME=        0.1 SECONDS, CPU UTILIZATION IS  40.00%

 DETERMINANT CI OPTIONS   NRNFG   NPFLG
 INTEGRAL TRANSFORMATION    1       0
 DIAGONALIZE HAMILTONIAN    1       0
 FORM 1E- DENSITY MATRIX    1       0
 FORM 2E- DENSITY MATRIX    0       0

     --------------------------------------------------
          AMES LABORATORY DETERMINANTAL FULL CI
     PROGRAM WRITTEN BY JOE IVANIC AND KLAUS RUEDENBERG
     --------------------------------------------------

 THE POINT GROUP                  =   C2V     
 THE STATE SYMMETRY               =   A1      
 NUMBER OF CORE ORBITALS          =    0
 NUMBER OF ACTIVE ORBITALS        =   20
 NUMBER OF ALPHA ELECTRONS        =    2 (   2 ACTIVE)
 NUMBER OF BETA ELECTRONS         =    2 (   2 ACTIVE)
 NUMBER OF OCCUPIED ORBITALS      =   20
 NUMBER OF CI STATES REQUESTED    =    1
 NUMBER OF CI STARTING VECTORS    =    1
 MAX. NO. OF CI EXPANSION VECTORS =   10
 SIZE OF INITIAL CI GUESS MATRIX  =  300
 MAX. NO. OF CI ITERS/STATE       =  100
 CI DIAGONALIZATION CRITERION     = 1.00E-06
 CI PROPERTIES WILL BE FOUND FOR ROOT NUMBER   1
 1E- DENSITY MATRIX OPTIONS ARE 1

 CORRELATION ENERGY ANALYSIS      =    F

 SYMMETRIES FOR THE   0 CORE,  20 ACTIVE ARE

   ACTIVE= A1    A1    A1    B1    B2    A1    A1    B1    B2    A1  
           A2    A1    B1    B2    A1    A1    A1    B1    B2    A1  

     --------------------------------------------
     PARTIAL TWO ELECTRON INTEGRAL TRANSFORMATION
     --------------------------------------------

 NUMBER OF CORE MOLECULAR ORBITALS     =    0
 NUMBER OF OCCUPIED MOLECULAR ORBITALS =   20
 TOTAL NUMBER OF MOLECULAR ORBITALS    =   20
 TOTAL NUMBER OF ATOMIC ORBITALS       =   20
 THRESHOLD FOR KEEPING TRANSFORMED 2E- INTEGRALS = 1.000E-09
 AO INTEGRALS WILL BE READ IN FROM DISK...

 PLAN A: REQUIREMENTS FOR FULLY IN-MEMORY TRANSFORMATION:
 # OF WORDS AVAILABLE =              1000000
 # OF WORDS NEEDED    =               146042

 CHOOSING IN MEMORY PARTIAL TRANSFORMATION...
 TOTAL NUMBER OF TRANSFORMED 2E- INTEGRALS KEPT =         5962
 ... END OF INTEGRAL TRANSFORMATION ...
 STEP CPU TIME =     0.00 TOTAL CPU TIME =        0.0 (    0.0 MIN)
 TOTAL WALL CLOCK TIME=        0.1 SECONDS, CPU UTILIZATION IS  40.00%

     --------------------------------------------------
          AMES LABORATORY DETERMINANTAL FULL CI
     PROGRAM WRITTEN BY JOE IVANIC AND KLAUS RUEDENBERG
     --------------------------------------------------

 THE NUMBER OF DETERMINANTS HAVING SPACE SYMMETRY A1 
 IN POINT GROUP C2V  WITH SZ=  0.0 IS           9826
 THE DETERMINANT FULL CI REQUIRES          451749 WORDS
 INITIAL CI VECTOR GUESS TIME  :          0.0
 INITIAL FULL CI ITERATION TIME:          0.0

 ITERATION      ENERGY           GRADIENT
     0       -7.9324348999     0.05123039
     1       -7.9328893065     0.00360395
     2       -7.9328980999     0.00154383
     3       -7.9328990506     0.00034752
     4       -7.9328991748     0.00022482
     5       -7.9328992527     0.00015586
     6       -7.9328992664     0.00003682
     7       -7.9328992679     0.00001971
     8       -7.9328992683     0.00000733
     9       -7.9328992683     0.00000189
    10       -7.9328992683     0.00000051

 CONVERGED STATE    1 ENERGY=       -7.9328992683 IN   10 ITERS

 ALL STATES CONVERGED.

 CI EIGENVECTORS WILL BE LABELED IN GROUP=C2V     
 PRINTING CI COEFFICIENTS LARGER THAN 5.000E-02

 STATE   1  ENERGY=        -7.9328992683  S=  0.00  SZ=  0.00  SPACE SYM=A1  

        ALPHA         |        BETA          | CI COEFFICIENT
----------------------|----------------------|---------------
 11000000000000000000 | 11000000000000000000 |   0.7063794780
 10100000000000000000 | 10100000000000000000 |  -0.3557347990
 11000000000000000000 | 10100000000000000000 |   0.3231058446
 10100000000000000000 | 11000000000000000000 |   0.3231058446
 10100000000000000000 | 10000100000000000000 |  -0.2458193003
 10000100000000000000 | 10100000000000000000 |  -0.2458193003
 10000100000000000000 | 10000100000000000000 |  -0.1410236203
 10100000000000000000 | 10000000000000001000 |  -0.0585640496
 10000000000000001000 | 10100000000000000000 |  -0.0585640496
 11000000000000000000 | 10000000010000000000 |   0.0510964005
 10000000010000000000 | 11000000000000000000 |   0.0510964005
 ..... DONE WITH DETERMINANT CI COMPUTATION .....
 STEP CPU TIME =     0.23 TOTAL CPU TIME =        0.3 (    0.0 MIN)
 TOTAL WALL CLOCK TIME=        0.4 SECONDS, CPU UTILIZATION IS  71.05%

     ---------------------------
     ONE PARTICLE DENSITY MATRIX
     ---------------------------

 DENSITY MATRIX WILL BE SAVED FOR   1-TH STATE WITH S= 0.00

 CI EIGENSTATE   1 TOTAL ENERGY =       -7.9328992683

          NATURAL ORBITALS IN ATOMIC ORBITAL BASIS
          ----------------------------------------

                      1          2          3          4          5
                    1.9998     1.3006     0.6991     0.0001     0.0001
                     A1         A1         A1         A1         B2  
    1  LI 1  S    0.998522  -0.125701  -0.140352   0.019277  -0.000000
    2  LI 1  S   -0.006707   0.156025   0.231850   0.606333  -0.000000
    3  LI 1  X   -0.000000   0.000000  -0.000000   0.000000  -0.000000
    4  LI 1  Y   -0.000000   0.000000  -0.000000   0.000000   1.389035
    5  LI 1  Z   -0.000624   0.003085   0.011332   0.989582  -0.000000
    6  LI 1  S    0.000532   0.482459   0.509939  -0.256577  -0.000000
    7  LI 1  X   -0.000000   0.000000  -0.000000   0.000000  -0.000000
    8  LI 1  Y   -0.000000   0.000000  -0.000000   0.000000  -0.582896
    9  LI 1  Z    0.000459   0.044434   0.019850  -0.097503  -0.000000
   10  LI 1 XX    0.007676   0.021511   0.018686  -0.284084  -0.000000
   11  LI 1 YY    0.007676   0.021511   0.018686  -0.284084  -0.000000
   12  LI 1 ZZ    0.007661   0.027250   0.017789  -0.022781  -0.000000
   13  LI 1 XY   -0.000000   0.000000  -0.000000   0.000000  -0.000000
   14  LI 1 XZ   -0.000000   0.000000  -0.000000   0.000000  -0.000000
   15  LI 1 YZ   -0.000000   0.000000  -0.000000   0.000000   0.071960
   16  H  2  S    0.000127   0.287909  -0.323147  -0.242404  -0.000000
   17  H  2  S    0.000324   0.465396  -0.466187   0.159259  -0.000000
   18  H  2  X   -0.000000   0.000000  -0.000000   0.000000  -0.000000
   19  H  2  Y   -0.000000   0.000000  -0.000000   0.000000   0.158791
   20  H  2  Z   -0.000013  -0.000022  -0.000122  -0.266451  -0.000000

                      6          7          8          9         10
                    0.0001     0.0001     0.0000     0.0000     0.0000
                     B1         A1         A1         A1         B2  
    1  LI 1  S   -0.000000   0.074034   0.128167  -0.027299  -0.000000
    2  LI 1  S   -0.000000   5.352537   7.845269  -1.230028  -0.000000
    3  LI 1  X    1.389035   0.000000   0.000000  -0.000000  -0.000000
    4  LI 1  Y   -0.000000   0.000000   0.000000  -0.000000  -0.803523
    5  LI 1  Z   -0.000000   0.453430  -0.511086  -1.136404  -0.000000
    6  LI 1  S   -0.000000  -2.227080  -3.198530   0.581339  -0.000000
    7  LI 1  X   -0.582896   0.000000   0.000000  -0.000000  -0.000000
    8  LI 1  Y   -0.000000   0.000000   0.000000  -0.000000   1.169955
    9  LI 1  Z   -0.000000  -0.414501   0.408726   1.350128  -0.000000
   10  LI 1 XX   -0.000000  -1.473827  -2.265810   0.227139  -0.000000
   11  LI 1 YY   -0.000000  -1.473827  -2.265810   0.227139  -0.000000
   12  LI 1 ZZ   -0.000000  -1.459032  -2.234617   0.528998  -0.000000
   13  LI 1 XY   -0.000000   0.000000   0.000000  -0.000000  -0.000000
   14  LI 1 XZ    0.071960   0.000000   0.000000  -0.000000  -0.000000
   15  LI 1 YZ   -0.000000   0.000000   0.000000  -0.000000   0.174325
   16  H  2  S   -0.000000   0.920871  -0.633366   0.450584  -0.000000
   17  H  2  S   -0.000000  -0.692204   0.644226  -0.678990  -0.000000
   18  H  2  X    0.158791   0.000000   0.000000  -0.000000  -0.000000
   19  H  2  Y   -0.000000   0.000000   0.000000  -0.000000   0.671726
   20  H  2  Z   -0.000000  -0.074203  -0.016079  -0.538479  -0.000000

                     11         12         13         14         15
                    0.0000     0.0000     0.0000     0.0000     0.0000
                     B1         B2         B1         A1         A1  
    1  LI 1  S   -0.000000   0.000000   0.000000  -0.007280  -0.000143
    2  LI 1  S   -0.000000   0.000000   0.000000   0.015693  -0.637346
    3  LI 1  X   -0.803523   0.000000  -0.468286   0.000000  -0.000000
    4  LI 1  Y   -0.000000  -0.468286   0.000000   0.000000  -0.000000
    5  LI 1  Z   -0.000000   0.000000   0.000000  -0.450733   0.092514
    6  LI 1  S   -0.000000   0.000000   0.000000   0.099495  -0.032325
    7  LI 1  X    1.169955   0.000000   1.006811   0.000000  -0.000000
    8  LI 1  Y   -0.000000   1.006811   0.000000   0.000000  -0.000000
    9  LI 1  Z   -0.000000   0.000000   0.000000   0.958888  -0.334760
   10  LI 1 XX   -0.000000   0.000000   0.000000  -0.095517  -0.145627
   11  LI 1 YY   -0.000000   0.000000   0.000000  -0.095517  -0.145627
   12  LI 1 ZZ   -0.000000   0.000000   0.000000   0.057629   1.270482
   13  LI 1 XY   -0.000000   0.000000   0.000000   0.000000  -0.000000
   14  LI 1 XZ    0.174325   0.000000   0.115973   0.000000  -0.000000
   15  LI 1 YZ   -0.000000   0.115973   0.000000   0.000000  -0.000000
   16  H  2  S   -0.000000   0.000000   0.000000   0.314623  -0.069070
   17  H  2  S   -0.000000   0.000000   0.000000  -0.500068   0.135337
   18  H  2  X    0.671726   0.000000  -0.722225   0.000000  -0.000000
   19  H  2  Y   -0.000000  -0.722225   0.000000   0.000000  -0.000000
   20  H  2  Z   -0.000000   0.000000   0.000000   0.792851   0.079097

                     16         17         18         19         20
                    0.0000     0.0000     0.0000     0.0000     0.0000
                     B2         B1         A1         A2         A1  
    1  LI 1  S   -0.000000  -0.000000   0.000000   0.000000  -0.009755
    2  LI 1  S   -0.000000  -0.000000   0.000000   0.000000   2.877464
    3  LI 1  X   -0.000000   0.096829   0.000000   0.000000   0.000000
    4  LI 1  Y    0.096829  -0.000000   0.000000   0.000000   0.000000
    5  LI 1  Z   -0.000000  -0.000000   0.000000   0.000000   0.048173
    6  LI 1  S   -0.000000  -0.000000   0.000000   0.000000   0.372953
    7  LI 1  X   -0.000000  -0.285862   0.000000   0.000000   0.000000
    8  LI 1  Y   -0.285862  -0.000000   0.000000   0.000000   0.000000
    9  LI 1  Z   -0.000000  -0.000000   0.000000   0.000000  -0.112301
   10  LI 1 XX   -0.000000  -0.000000  -0.866025   0.000000  -1.661601
   11  LI 1 YY   -0.000000  -0.000000   0.866025   0.000000  -1.661601
   12  LI 1 ZZ   -0.000000  -0.000000   0.000000   0.000000  -1.409500
   13  LI 1 XY   -0.000000  -0.000000   0.000000   1.000000   0.000000
   14  LI 1 XZ   -0.000000   0.975183   0.000000   0.000000   0.000000
   15  LI 1 YZ    0.975183  -0.000000   0.000000   0.000000   0.000000
   16  H  2  S   -0.000000  -0.000000   0.000000   0.000000   0.111106
   17  H  2  S   -0.000000  -0.000000   0.000000   0.000000  -0.175335
   18  H  2  X   -0.000000  -0.046010   0.000000   0.000000   0.000000
   19  H  2  Y   -0.046010  -0.000000   0.000000   0.000000   0.000000
   20  H  2  Z   -0.000000  -0.000000   0.000000   0.000000   0.011209
 ..... DONE WITH ONE PARTICLE DENSITY MATRIX .....
 STEP CPU TIME =     0.00 TOTAL CPU TIME =        0.3 (    0.0 MIN)
 TOTAL WALL CLOCK TIME=        0.4 SECONDS, CPU UTILIZATION IS  71.05%

     --------------------------------------------------------
     ALDET CI PROPERTIES...FOR THE WAVEFUNCTION OF STATE    1
               USING THE EXPECTATION VALUE DENSITY
     --------------------------------------------------------

          -----------------
          ENERGY COMPONENTS
          -----------------

         WAVEFUNCTION NORMALIZATION =       1.0000000000

                ONE ELECTRON ENERGY =     -10.9998080741
                TWO ELECTRON ENERGY =       2.6797059405
           NUCLEAR REPULSION ENERGY =       0.3872028653
                                      ------------------
                       TOTAL ENERGY =      -7.9328992683

 ELECTRON-ELECTRON POTENTIAL ENERGY =       2.6797059405
  NUCLEUS-ELECTRON POTENTIAL ENERGY =     -18.9465518011
   NUCLEUS-NUCLEUS POTENTIAL ENERGY =       0.3872028653
                                      ------------------
             TOTAL POTENTIAL ENERGY =     -15.8796429953
               TOTAL KINETIC ENERGY =       7.9467437270
                 VIRIAL RATIO (V/T) =       1.9982578451

          ---------------------------------------
          MULLIKEN AND LOWDIN POPULATION ANALYSES
          ---------------------------------------

               ----- POPULATIONS IN EACH AO -----
                             MULLIKEN      LOWDIN
              1  LI 1  S      1.99842     1.98574
              2  LI 1  S      0.24133     0.26135
              3  LI 1  X      0.00008     0.00006
              4  LI 1  Y      0.00008     0.00006
              5  LI 1  Z      0.00027     0.00164
              6  LI 1  S      0.67922     0.48320
              7  LI 1  X      0.00000     0.00002
              8  LI 1  Y      0.00000     0.00002
              9  LI 1  Z      0.01001     0.01854
             10  LI 1 XX      0.01997     0.08211
             11  LI 1 YY      0.01997     0.08211
             12  LI 1 ZZ      0.02326     0.08514
             13  LI 1 XY      0.00000     0.00000
             14  LI 1 XZ      0.00000     0.00000
             15  LI 1 YZ      0.00000     0.00000
             16  H  2  S      0.36836     0.39868
             17  H  2  S      0.63894     0.60121
             18  H  2  X      0.00002     0.00002
             19  H  2  Y      0.00002     0.00002
             20  H  2  Z      0.00003     0.00006

          ----- MULLIKEN ATOMIC OVERLAP POPULATIONS -----
          (OFF-DIAGONAL ELEMENTS NEED TO BE MULTIPLIED BY 2)

             1           2

    1    2.9679222
    2    0.0247071   0.9826636

          TOTAL MULLIKEN AND LOWDIN ATOMIC POPULATIONS
       ATOM         MULL.POP.    CHARGE          LOW.POP.     CHARGE
    1 LI            2.992629    0.007371         3.000011   -0.000011
    2 H             1.007371   -0.007371         0.999989    0.000011

          ---------------------
          ELECTROSTATIC MOMENTS
          ---------------------

 POINT   1           X           Y           Z (BOHR)    CHARGE
                 0.000000    0.000000    0.973165        0.00 (A.U.)
         DX          DY          DZ         /D/  (DEBYE)
     0.000000    0.000000   -1.152923    1.152923
 ...... END OF PROPERTY EVALUATION ......
 STEP CPU TIME =     0.00 TOTAL CPU TIME =        0.3 (    0.0 MIN)
 TOTAL WALL CLOCK TIME=        0.4 SECONDS, CPU UTILIZATION IS  71.05%
               580000  WORDS OF DYNAMIC MEMORY USED
 EXECUTION OF GAMESS TERMINATED NORMALLY Thu Jan 17 17:51:51 2019
 DDI: 263640 bytes (0.3 MB / 0 MWords) used by master data server.

 ----------------------------------------
 CPU timing information for all processes
 ========================================
 0: 0.225 + 0.55 = 0.280
 1: 0.09 + 0.43 = 0.53
 ----------------------------------------
 ddikick.x: exited gracefully.
unset echo
----- accounting info -----
Files used on the master node bach.ad64.riken.go.jp were:
-rw-------  1 maho  staff      280  1 17 17:51 .//LiH.631g/4.1/LiH.631g.fullCI.4.1.gamess.F05
-rw-r--r--  1 maho  staff   180016  1 17 17:51 .//LiH.631g/4.1/LiH.631g.fullCI.4.1.gamess.F08
-rw-r--r--  1 maho  staff   181704  1 17 17:51 .//LiH.631g/4.1/LiH.631g.fullCI.4.1.gamess.F09
-rw-r--r--  1 maho  staff  1832320  1 17 17:51 .//LiH.631g/4.1/LiH.631g.fullCI.4.1.gamess.F10
-rw-r--r--  1 maho  staff    78640  1 17 17:51 .//LiH.631g/4.1/LiH.631g.fullCI.4.1.gamess.F12
-rw-r--r--  1 maho  staff    14499  1 17 17:51 .//LiH.631g/4.1/LiH.631g.fullCI.4.1.gamess.dat
-rw-------  1 maho  staff      280  1 17 17:51 .//LiH.631g/4.1/LiH.631g.fullCI.4.1.gamess.inp
-rw-r--r--  1 maho  staff    43612  1 17 17:51 .//LiH.631g/4.1/LiH.631g.fullCI.4.1.gamess.log
ls: No match.
ls: No match.
ls: No match.
2019年 1月17日 木曜日 17時51分54秒 JST
0.343u 0.188s 0:03.71 14.0%	0+0k 0+3io 0pf+0w
