----- GAMESS execution script 'rungms' -----
This job is running on host bach.ad64.riken.go.jp
under operating system Darwin at 2019年 1月17日 木曜日 17時51分47秒 JST
Available scratch disk space (Kbyte units) at beginning of the job is
Filesystem   1024-blocks       Used Available Capacity iused      ifree %iused  Mounted on
/dev/disk2s2  1953178672 1144754016 808424656    59%  984491 4293982788    0%   /Volumes/Users
GAMESS temporary binary files will be written to ./
GAMESS supplementary output files will be written to ./
Copying input file LiH.631g/4.1/LiH.631g.CCSDT.4.1.gamess.inp to your run's scratch directory...
cp LiH.631g/4.1/LiH.631g.CCSDT.4.1.gamess.inp .//LiH.631g/4.1/LiH.631g.CCSDT.4.1.gamess.F05
unset echo
/Volumes/Users/maho/bin/gamess//ddikick.x /Volumes/Users/maho/bin/gamess//gamess.00.x LiH.631g/4.1/LiH.631g.CCSDT.4.1.gamess -ddi 1 1 bach.ad64.riken.go.jp -scr ./

 Distributed Data Interface kickoff program.
 Initiating 1 compute processes on 1 nodes to run the following command:
 /Volumes/Users/maho/bin/gamess//gamess.00.x LiH.631g/4.1/LiH.631g.CCSDT.4.1.gamess 

          ******************************************************
          *         GAMESS VERSION = 18 AUG 2016 (R1)          *
          *             FROM IOWA STATE UNIVERSITY             *
          * M.W.SCHMIDT, K.K.BALDRIDGE, J.A.BOATZ, S.T.ELBERT, *
          *   M.S.GORDON, J.H.JENSEN, S.KOSEKI, N.MATSUNAGA,   *
          *          K.A.NGUYEN, S.J.SU, T.L.WINDUS,           *
          *       TOGETHER WITH M.DUPUIS, J.A.MONTGOMERY       *
          *         J.COMPUT.CHEM.  14, 1347-1363(1993)        *
          **************** 64 BIT APPLE VERSION ****************

  SINCE 1993, STUDENTS AND POSTDOCS WORKING AT IOWA STATE UNIVERSITY
  AND ALSO IN THEIR VARIOUS JOBS AFTER LEAVING ISU HAVE MADE IMPORTANT
  CONTRIBUTIONS TO THE CODE:
     IVANA ADAMOVIC, CHRISTINE AIKENS, YURI ALEXEEV, POOJA ARORA,
     ANDREY ASADCHEV, ROB BELL, PRADIPTA BANDYOPADHYAY, JONATHAN BENTZ,
     BRETT BODE, KURT BRORSEN, CALEB CARLIN, GALINA CHABAN, WEI CHEN,
     CHEOL HO CHOI, PAUL DAY, ALBERT DEFUSCO, NUWAN DESILVA, TIM DUDLEY,
     DMITRI FEDOROV, GRAHAM FLETCHER, MARK FREITAG, KURT GLAESEMANN,
     DAN KEMP, GRANT MERRILL, NORIYUKI MINEZAWA, JONATHAN MULLIN,
     TAKESHI NAGATA, SEAN NEDD, HEATHER NETZLOFF, BOSILJKA NJEGIC, RYAN OLSON,
     MIKE PAK, SPENCER PRUITT, LUKE ROSKOP, JIM SHOEMAKER, LYUDMILA SLIPCHENKO,
     TONY SMITH, SAROM SOK LEANG, JIE SONG, TETSUYA TAKETSUGU, SIMON WEBB,
     PENG XU, SOOHAENG YOO, FEDERICO ZAHARIEV

  ADDITIONAL CODE HAS BEEN PROVIDED BY COLLABORATORS IN OTHER GROUPS:
     IOWA STATE UNIVERSITY:
          JOE IVANIC, AARON WEST, LAIMUTIS BYTAUTAS, KLAUS RUEDENBERG
     UNIVERSITY OF TOKYO: KIMIHIKO HIRAO, TAKAHITO NAKAJIMA,
          TAKAO TSUNEDA, MUNEAKI KAMIYA, SUSUMU YANAGISAWA,
          KIYOSHI YAGI, MAHITO CHIBA, SEIKEN TOKURA, NAOAKI KAWAKAMI
     UNIVERSITY OF AARHUS: FRANK JENSEN
     UNIVERSITY OF IOWA: VISVALDAS KAIRYS, HUI LI
     NATIONAL INST. OF STANDARDS AND TECHNOLOGY: WALT STEVENS, DAVID GARMER
     UNIVERSITY OF PISA: BENEDETTA MENNUCCI, JACOPO TOMASI
     UNIVERSITY OF MEMPHIS: HENRY KURTZ, PRAKASHAN KORAMBATH
     UNIVERSITY OF ALBERTA: TOBY ZENG, MARIUSZ KLOBUKOWSKI
     UNIVERSITY OF NEW ENGLAND: MARK SPACKMAN
     MIE UNIVERSITY: HIROAKI UMEDA
     NAT. INST. OF ADVANCED INDUSTRIAL SCIENCE AND TECHNOLOGY: KAZUO KITAURA
     MICHIGAN STATE UNIVERSITY:
          KAROL KOWALSKI, MARTA WLOCH, JEFFREY GOUR, JESSE LUTZ,
          WEI LI, PIOTR PIECUCH
     UNIVERSITY OF SILESIA: MONIKA MUSIAL, STANISLAW KUCHARSKI
     FACULTES UNIVERSITAIRES NOTRE-DAME DE LA PAIX:
          OLIVIER QUINET, BENOIT CHAMPAGNE
     UNIVERSITY OF CALIFORNIA - SANTA BARBARA: BERNARD KIRTMAN
     INSTITUTE FOR MOLECULAR SCIENCE:
          KAZUYA ISHIMURA, MICHIO KATOUDA, AND SHIGERU NAGASE
     UNIVERSITY OF NOTRE DAME: ANNA POMOGAEVA, DAN CHIPMAN
     KYUSHU UNIVERSITY:
          HARUYUKI NAKANO,
          FENG LONG GU, JACEK KORCHOWIEC, MARCIN MAKOWSKI, AND YURIKO AOKI,
          HIROTOSHI MORI AND EISAKU MIYOSHI
     PENNSYLVANIA STATE UNIVERSITY:
          TZVETELIN IORDANOV, CHET SWALINA, JONATHAN SKONE,
          SHARON HAMMES-SCHIFFER
     WASEDA UNIVERSITY:
          MASATO KOBAYASHI, TOMOKO AKAMA, TSUGUKI TOUMA,
          TAKESHI YOSHIKAWA, YASUHIRO IKABATA, JUNJI SEINO,
          YUYA NAKAJIMA, HIROMI NAKAI
     NANJING UNIVERSITY: SHUHUA LI
     UNIVERSITY OF NEBRASKA:
          PEIFENG SU, DEJUN SI, NANDUN THELLAMUREGE, YALI WANG, HUI LI
     UNIVERSITY OF ZURICH: ROBERTO PEVERATI, KIM BALDRIDGE
     N. COPERNICUS UNIVERSITY AND JACKSON STATE UNIVERSITY:
          MARIA BARYSZ
     UNIVERSITY OF COPENHAGEN: Jimmy Kromann, CASPER STEINMANN
     TOKYO INSTITUTE OF TECHNOLOGY: HIROYA NAKATA
     NAGOYA UNIVERSITY: YOSHIO NISHIMOTO, STEPHAN IRLE
     MOSCOW STATE UNIVERSITY: VLADIMIR MIRONOV

 EXECUTION OF GAMESS BEGUN Thu Jan 17 17:51:47 2019

            ECHO OF THE FIRST FEW INPUT CARDS -
 INPUT CARD> $CONTRL MULT=1 SCFTYP=RHF CCTYP=CCSD(T) $END                                   
 INPUT CARD> $BASIS GBASIS=N31 NGAUSS=6 NDFUNC=1 NPFUNC=1 $END                              
 INPUT CARD> $CCINP NCORE=0 $END                                                            
 INPUT CARD> $GUESS GUESS=HUCKEL $END                                                       
 INPUT CARD> $DATA                                                                          
 INPUT CARD>LiH...HF...6-31G* basis                                                         
 INPUT CARD>Cnv   2                                                                         
 INPUT CARD>                                                                                
 INPUT CARD>Li    3.0    0.0      0.0     0.0                                               
 INPUT CARD>H     1.0    0.0      0.0     4.1                                               
 INPUT CARD> $END                                                                           
    1000000 WORDS OF MEMORY AVAILABLE

     BASIS OPTIONS
     -------------
     GBASIS=N31          IGAUSS=       6      POLAR=POPN31  
     NDFUNC=       1     NFFUNC=       0     DIFFSP=       F
     NPFUNC=       1      DIFFS=       F     BASNAM=        


     RUN TITLE
     ---------
 LiH...HF...6-31G* basis                                                         

 THE POINT GROUP OF THE MOLECULE IS CNV     
 THE ORDER OF THE PRINCIPAL AXIS IS     2

 ATOM      ATOMIC                      COORDINATES (BOHR)
           CHARGE         X                   Y                   Z
 LI          3.0     0.0000000000        0.0000000000        0.0000000000
 H           1.0     0.0000000000        0.0000000000        7.7478765497

          INTERNUCLEAR DISTANCES (ANGS.)
          ------------------------------

                1 LI         2 H     

   1 LI      0.0000000    4.1000000  
   2 H       4.1000000    0.0000000  

  * ... LESS THAN  3.000


     ATOMIC BASIS SET
     ----------------
 THE CONTRACTED PRIMITIVE FUNCTIONS HAVE BEEN UNNORMALIZED
 THE CONTRACTED BASIS FUNCTIONS ARE NOW NORMALIZED TO UNITY

  SHELL TYPE  PRIMITIVE        EXPONENT          CONTRACTION COEFFICIENT(S)

 LI        

      1   S       1           642.4189150    0.002142607810
      1   S       2            96.7985153    0.016208871501
      1   S       3            22.0911212    0.077315572504
      1   S       4             6.2010702    0.245786052013
      1   S       5             1.9351177    0.470189004025
      1   S       6             0.6367358    0.345470845019

      2   L       7             2.3249184   -0.035091745735    0.008941508043
      2   L       8             0.6324304   -0.191232843103    0.141009464046
      2   L       9             0.0790534    1.083987794916    0.945363695309

      3   L      10             0.0359620    1.000000000000    1.000000000000

      4   D      11             0.2000000    1.000000000000

 H         

      5   S      12            18.7311370    0.033494604338
      5   S      13             2.8253944    0.234726953484
      5   S      14             0.6401217    0.813757326146

      6   S      15             0.1612778    1.000000000000

      7   P      16             1.1000000    1.000000000000

 TOTAL NUMBER OF BASIS SET SHELLS             =    7
 NUMBER OF CARTESIAN GAUSSIAN BASIS FUNCTIONS =   20
 NUMBER OF ELECTRONS                          =    4
 CHARGE OF MOLECULE                           =    0
 SPIN MULTIPLICITY                            =    1
 NUMBER OF OCCUPIED ORBITALS (ALPHA)          =    2
 NUMBER OF OCCUPIED ORBITALS (BETA )          =    2
 TOTAL NUMBER OF ATOMS                        =    2
 THE NUCLEAR REPULSION ENERGY IS        0.3872028653

 THIS MOLECULE IS RECOGNIZED AS BEING LINEAR,
 ORBITAL LZ DEGENERACY TOLERANCE ETOLLZ= 1.00E-06

     $CONTRL OPTIONS
     ---------------
 SCFTYP=RHF          RUNTYP=ENERGY       EXETYP=RUN     
 MPLEVL=       0     CITYP =NONE         CCTYP =CCSD(T)      VBTYP =NONE    
 DFTTYP=NONE         TDDFT =NONE    
 MULT  =       1     ICHARG=       0     NZVAR =       0     COORD =UNIQUE  
 PP    =NONE         RELWFN=NONE         LOCAL =NONE         NUMGRD=       F
 ISPHER=      -1     NOSYM =       0     MAXIT =      30     UNITS =ANGS    
 PLTORB=       F     MOLPLT=       F     AIMPAC=       F     FRIEND=        
 NPRINT=       7     IREST =       0     GEOM  =INPUT   
 NORMF =       0     NORMP =       0     ITOL  =      20     ICUT  =       9
 INTTYP=BEST         GRDTYP=BEST         QMTTOL= 1.0E-06

     $SYSTEM OPTIONS
     ---------------
  REPLICATED MEMORY=     1000000 WORDS (ON EVERY NODE).
 DISTRIBUTED MEMDDI=           0 MILLION WORDS IN AGGREGATE,
 MEMDDI DISTRIBUTED OVER   1 PROCESSORS IS           0 WORDS/PROCESSOR.
 TOTAL MEMORY REQUESTED ON EACH PROCESSOR=     1000000 WORDS.
 TIMLIM=      525600.00 MINUTES, OR     365.0 DAYS.
 PARALL= F  BALTYP=  DLB     KDIAG=    0  COREFL= F
 MXSEQ2=     300 MXSEQ3=     150  mem10=         0

          ----------------
          PROPERTIES INPUT
          ----------------

     MOMENTS            FIELD           POTENTIAL          DENSITY
 IEMOM =       1   IEFLD =       0   IEPOT =       0   IEDEN =       0
 WHERE =COMASS     WHERE =NUCLEI     WHERE =NUCLEI     WHERE =NUCLEI  
 OUTPUT=BOTH       OUTPUT=BOTH       OUTPUT=BOTH       OUTPUT=BOTH    
 IEMINT=       0   IEFINT=       0                     IEDINT=       0
                                                       MORB  =       0
          EXTRAPOLATION IN EFFECT
          SOSCF IN EFFECT
 ORBITAL PRINTING OPTION: NPREO=     1    20     2     1

     -------------------------------
     INTEGRAL TRANSFORMATION OPTIONS
     -------------------------------
     NWORD  =            0
     CUTOFF = 1.0E-09     MPTRAN =       0
     DIRTRF =       F     AOINTS =DUP     

          ----------------------
          INTEGRAL INPUT OPTIONS
          ----------------------
 NOPK  =       1 NORDER=       0 SCHWRZ=       F

     ------------------------------------------
     THE POINT GROUP IS CNV, NAXIS= 2, ORDER= 4
     ------------------------------------------

     DIMENSIONS OF THE SYMMETRY SUBSPACES ARE
 A1  =   11     A2  =    1     B1  =    4     B2  =    4

 ..... DONE SETTING UP THE RUN .....
 STEP CPU TIME =     0.00 TOTAL CPU TIME =        0.0 (    0.0 MIN)
 TOTAL WALL CLOCK TIME=        0.0 SECONDS, CPU UTILIZATION IS   0.00%

          ********************
          1 ELECTRON INTEGRALS
          ********************
 ...... END OF ONE-ELECTRON INTEGRALS ......
 STEP CPU TIME =     0.00 TOTAL CPU TIME =        0.0 (    0.0 MIN)
 TOTAL WALL CLOCK TIME=        0.0 SECONDS, CPU UTILIZATION IS   0.00%

          -------------
          GUESS OPTIONS
          -------------
          GUESS =HUCKEL            NORB  =       0          NORDER=       0
          MIX   =       F          PRTMO =       F          PUNMO =       F
          TOLZ  = 1.0E-08          TOLE  = 1.0E-05
          SYMDEN=       F          PURIFY=       F

 INITIAL GUESS ORBITALS GENERATED BY HUCKEL   ROUTINE.
 HUCKEL GUESS REQUIRES      4469 WORDS.

 SYMMETRIES FOR INITIAL GUESS ORBITALS FOLLOW.   BOTH SET(S).
     2 ORBITALS ARE OCCUPIED (    1 CORE ORBITALS).
     2=A1       3=A1       4=A1       5=A1       6=A1       7=A1       8=A1  
     9=A1      10=A1      11=A1      12=A2  
 ...... END OF INITIAL ORBITAL SELECTION ......
 STEP CPU TIME =     0.00 TOTAL CPU TIME =        0.0 (    0.0 MIN)
 TOTAL WALL CLOCK TIME=        0.0 SECONDS, CPU UTILIZATION IS   0.00%

                    ----------------------
                    AO INTEGRAL TECHNOLOGY
                    ----------------------
     S,P,L SHELL ROTATED AXIS INTEGRALS, REPROGRAMMED BY
        KAZUYA ISHIMURA (IMS) AND JOSE SIERRA (SYNSTAR).
     S,P,D,L SHELL ROTATED AXIS INTEGRALS PROGRAMMED BY
        KAZUYA ISHIMURA (INSTITUTE FOR MOLECULAR SCIENCE).
     S,P,D,F,G SHELL TO TOTAL QUARTET ANGULAR MOMENTUM SUM 5,
        ERIC PROGRAM BY GRAHAM FLETCHER (ELORET AND NASA ADVANCED
        SUPERCOMPUTING DIVISION, AMES RESEARCH CENTER).
     S,P,D,F,G,L SHELL GENERAL RYS QUADRATURE PROGRAMMED BY
        MICHEL DUPUIS (PACIFIC NORTHWEST NATIONAL LABORATORY).

          --------------------
          2 ELECTRON INTEGRALS
          --------------------

 THE -PK- OPTION IS OFF, THE INTEGRALS ARE NOT IN SUPERMATRIX FORM.
 STORING   15000 INTEGRALS/RECORD ON DISK, USING 12 BYTES/INTEGRAL.
 TWO ELECTRON INTEGRAL EVALUATION REQUIRES   90424 WORDS OF MEMORY.
 II,JST,KST,LST =  1  1  1  1 NREC =         1 INTLOC =    1
 II,JST,KST,LST =  2  1  1  1 NREC =         1 INTLOC =    2
 II,JST,KST,LST =  3  1  1  1 NREC =         1 INTLOC =   34
 II,JST,KST,LST =  4  1  1  1 NREC =         1 INTLOC =  214
 II,JST,KST,LST =  5  1  1  1 NREC =         1 INTLOC = 1189
 II,JST,KST,LST =  6  1  1  1 NREC =         1 INTLOC = 1804
 II,JST,KST,LST =  7  1  1  1 NREC =         1 INTLOC = 2638
 TOTAL NUMBER OF NONZERO TWO-ELECTRON INTEGRALS =                5258
          1 INTEGRAL RECORDS WERE STORED ON DISK FILE  8.
  ...... END OF TWO-ELECTRON INTEGRALS .....
 STEP CPU TIME =     0.02 TOTAL CPU TIME =        0.0 (    0.0 MIN)
 TOTAL WALL CLOCK TIME=        0.0 SECONDS, CPU UTILIZATION IS  66.67%

          --------------------------
                 RHF SCF CALCULATION
          --------------------------

     NUCLEAR ENERGY =         0.3872028653
     MAXIT =   30     NPUNCH=    2
     EXTRAP=T  DAMP=F  SHIFT=F  RSTRCT=F  DIIS=F  DEM=F  SOSCF=T
     DENSITY MATRIX CONV=  1.00E-06
     SOSCF WILL OPTIMIZE      36 ORBITAL ROTATIONS, SOGTOL=   0.250
     MEMORY REQUIRED FOR RHF ITERS=     33224 WORDS.

 ITER EX DEM     TOTAL ENERGY        E CHANGE  DENSITY CHANGE     ORB. GRAD
   1  0  0       -7.5173114682    -7.5173114682   1.134640962   0.000000000
          ---------------START SECOND ORDER SCF---------------
 SOSCF IS SCALING ROTATION ANGLE MATRIX, SQCDF=    0.147989
   2  1  0       -7.4662633031     0.0510481651   0.521116742   0.077064080
 SOSCF IS SCALING ROTATION ANGLE MATRIX, SQCDF=    1.563163
   3  2  0       -7.6800225197    -0.2137592165   1.353017570   0.109352366
 SOSCF IS SCALING ROTATION ANGLE MATRIX, SQCDF=    0.117234
   4  3  0       -7.7436186578    -0.0635961381   0.449833148   0.085544500
   5  4  0       -7.7989597889    -0.0553411312   0.249736106   0.079253506
   6  5  0       -7.8388209425    -0.0398611536   0.215283196   0.028622296
   7  6  0       -7.8521285089    -0.0133075663   0.084375908   0.005723957
   8  7  0       -7.8538179716    -0.0016894627   0.015486375   0.004456488
   9  8  0       -7.8539529843    -0.0001350128   0.003990012   0.000719641
  10  9  0       -7.8539603614    -0.0000073771   0.000914165   0.000270874
  11 10  0       -7.8539605498    -0.0000001884   0.000137820   0.000045369
  12 11  0       -7.8539605547    -0.0000000048   0.000006585   0.000002651
  13 12  0       -7.8539605547    -0.0000000000   0.000000533   0.000000294
  14 13  0       -7.8539605547    -0.0000000000   0.000000050   0.000000031

 RHF HAS CONVERGED, NOW COMPUTING EXACT TOTAL FOCK MATRIX
 FOR USE DURING THE COUPLED CLUSTER CALCULATION THAT FOLLOWS.

          -----------------
          DENSITY CONVERGED
          -----------------
     TIME TO FORM FOCK OPERATORS=       0.0 SECONDS (       0.0 SEC/ITER)
     TIME TO SOLVE SCF EQUATIONS=       0.0 SECONDS (       0.0 SEC/ITER)

 FINAL RHF ENERGY IS       -7.8539605547 AFTER  14 ITERATIONS

 LZ VALUE ANALYSIS FOR THE MOS
 ----------------------------------------
 MO     1 (    1) HAS LZ(WEIGHT)= 0.00(100.0%) 
 MO     2 (    2) HAS LZ(WEIGHT)= 0.00(100.0%) 
 MO     3 (    3) HAS LZ(WEIGHT)= 0.00(100.0%) 
 MO     4 (    4) HAS LZ(WEIGHT)=-1.00( 50.0%)  1.00( 50.0%) 
 MO     5 (    4) HAS LZ(WEIGHT)=-1.00( 50.0%)  1.00( 50.0%) 
 MO     6 (    5) HAS LZ(WEIGHT)= 0.00(100.0%) 
 MO     7 (    6) HAS LZ(WEIGHT)= 0.00(100.0%) 
 MO     8 (    7) HAS LZ(WEIGHT)=-1.00( 50.0%)  1.00( 50.0%) 
 MO     9 (    7) HAS LZ(WEIGHT)=-1.00( 50.0%)  1.00( 50.0%) 
 MO    10 (    8) HAS LZ(WEIGHT)= 0.00(100.0%) 
 MO    11 (    9) HAS LZ(WEIGHT)=-2.00( 50.0%)  2.00( 50.0%) 
 MO    12 (    9) HAS LZ(WEIGHT)=-2.00( 50.0%)  2.00( 50.0%) 
 MO    13 (   10) HAS LZ(WEIGHT)=-1.00( 50.0%)  1.00( 50.0%) 
 MO    14 (   10) HAS LZ(WEIGHT)=-1.00( 50.0%)  1.00( 50.0%) 
 MO    15 (   11) HAS LZ(WEIGHT)= 0.00(100.0%) 
 MO    16 (   12) HAS LZ(WEIGHT)= 0.00(100.0%) 
 MO    17 (   13) HAS LZ(WEIGHT)= 0.00(100.0%) 
 MO    18 (   14) HAS LZ(WEIGHT)=-1.00( 50.0%)  1.00( 50.0%) 
 MO    19 (   14) HAS LZ(WEIGHT)=-1.00( 50.0%)  1.00( 50.0%) 
 MO    20 (   15) HAS LZ(WEIGHT)= 0.00(100.0%) 

          ------------
          EIGENVECTORS
          ------------

                      1          2          3          4          5
                   -2.5809    -0.1931    -0.0440     0.0248     0.0248
                     A1         A1         A1         B1         B2  
    1  LI 1  S    0.998761  -0.090425  -0.161285  -0.000000  -0.000000
    2  LI 1  S   -0.012321  -0.064720   0.064032  -0.000000  -0.000000
    3  LI 1  X    0.000000  -0.000000  -0.000000   0.228898  -0.000000
    4  LI 1  Y    0.000000  -0.000000  -0.000000  -0.000000   0.228898
    5  LI 1  Z   -0.002967   0.000054  -0.106225  -0.000000  -0.000000
    6  LI 1  S    0.001971   0.470031   0.726342  -0.000000  -0.000000
    7  LI 1  X    0.000000  -0.000000  -0.000000   0.806619  -0.000000
    8  LI 1  Y    0.000000  -0.000000  -0.000000  -0.000000   0.806619
    9  LI 1  Z    0.002028   0.215329  -0.331655  -0.000000  -0.000000
   10  LI 1 XX    0.008809   0.025540   0.037778  -0.000000  -0.000000
   11  LI 1 YY    0.008809   0.025540   0.037778  -0.000000  -0.000000
   12  LI 1 ZZ    0.008658   0.043480   0.035319  -0.000000  -0.000000
   13  LI 1 XY    0.000000  -0.000000  -0.000000  -0.000000  -0.000000
   14  LI 1 XZ    0.000000  -0.000000  -0.000000  -0.027874  -0.000000
   15  LI 1 YZ    0.000000  -0.000000  -0.000000  -0.000000  -0.027874
   16  H  2  S    0.000049   0.240821  -0.101194  -0.000000  -0.000000
   17  H  2  S   -0.000203   0.588349  -0.252410  -0.000000  -0.000000
   18  H  2  X    0.000000  -0.000000  -0.000000   0.001148  -0.000000
   19  H  2  Y    0.000000  -0.000000  -0.000000  -0.000000   0.001148
   20  H  2  Z   -0.000008  -0.001284  -0.000926  -0.000000  -0.000000

                      6          7          8          9         10
                    0.0641     0.1505     0.1683     0.1683     0.2186
                     A1         A1         B1         B2         A1  
    1  LI 1  S   -0.044015   0.058479  -0.000000  -0.000000   0.067608
    2  LI 1  S    0.574340   2.262684  -0.000000  -0.000000   2.312446
    3  LI 1  X   -0.000000  -0.000000   1.656821  -0.000000  -0.000000
    4  LI 1  Y   -0.000000  -0.000000  -0.000000   1.656821  -0.000000
    5  LI 1  Z    0.262087  -1.203525  -0.000000  -0.000000   1.183801
    6  LI 1  S   -0.169533  -1.771300  -0.000000  -0.000000  -1.853582
    7  LI 1  X   -0.000000  -0.000000  -1.466676  -0.000000  -0.000000
    8  LI 1  Y   -0.000000  -0.000000  -0.000000  -1.466676  -0.000000
    9  LI 1  Z    0.669694   0.991034  -0.000000  -0.000000  -1.249127
   10  LI 1 XX   -0.005829  -0.228300  -0.000000  -0.000000  -0.198175
   11  LI 1 YY   -0.005829  -0.228300  -0.000000  -0.000000  -0.198175
   12  LI 1 ZZ   -0.090839  -0.174602  -0.000000  -0.000000  -0.222950
   13  LI 1 XY   -0.000000  -0.000000  -0.000000  -0.000000  -0.000000
   14  LI 1 XZ   -0.000000  -0.000000  -0.042953  -0.000000  -0.000000
   15  LI 1 YZ   -0.000000  -0.000000  -0.000000  -0.042953  -0.000000
   16  H  2  S   -0.113626   0.018605  -0.000000  -0.000000   0.043076
   17  H  2  S   -0.454510  -0.011420  -0.000000  -0.000000   0.376147
   18  H  2  X   -0.000000  -0.000000  -0.000969  -0.000000  -0.000000
   19  H  2  Y   -0.000000  -0.000000  -0.000000  -0.000969  -0.000000
   20  H  2  Z   -0.003545   0.001716  -0.000000  -0.000000   0.000732

                     11         12         13         14         15
                    0.5020     0.5020     0.5082     0.5082     0.5119
                     A2         A1         B1         B2         A1  
    1  LI 1  S    0.000000  -0.000000  -0.000000  -0.000000  -0.002184
    2  LI 1  S    0.000000  -0.000000  -0.000000  -0.000000   0.029411
    3  LI 1  X    0.000000  -0.000000   0.077655  -0.000000   0.000000
    4  LI 1  Y    0.000000  -0.000000  -0.000000   0.077655   0.000000
    5  LI 1  Z    0.000000  -0.000000  -0.000000  -0.000000   0.072369
    6  LI 1  S    0.000000  -0.000000  -0.000000  -0.000000   0.008915
    7  LI 1  X    0.000000  -0.000000  -0.040578  -0.000000   0.000000
    8  LI 1  Y    0.000000  -0.000000  -0.000000  -0.040578   0.000000
    9  LI 1  Z    0.000000  -0.000000  -0.000000  -0.000000  -0.015200
   10  LI 1 XX    0.000000  -0.866025  -0.000000  -0.000000  -0.510190
   11  LI 1 YY    0.000000   0.866025  -0.000000  -0.000000  -0.510190
   12  LI 1 ZZ    0.000000  -0.000000  -0.000000  -0.000000   0.984253
   13  LI 1 XY    1.000000  -0.000000  -0.000000  -0.000000   0.000000
   14  LI 1 XZ    0.000000  -0.000000   0.998688  -0.000000   0.000000
   15  LI 1 YZ    0.000000  -0.000000  -0.000000   0.998688   0.000000
   16  H  2  S    0.000000  -0.000000  -0.000000  -0.000000  -0.059035
   17  H  2  S    0.000000  -0.000000  -0.000000  -0.000000  -0.007848
   18  H  2  X    0.000000  -0.000000   0.000450  -0.000000   0.000000
   19  H  2  Y    0.000000  -0.000000  -0.000000   0.000450   0.000000
   20  H  2  Z    0.000000  -0.000000  -0.000000  -0.000000  -0.002825

                     16         17         18         19         20
                    1.1558     1.1977     2.4652     2.4652     2.4697
                     A1         A1         B1         B2         A1  
    1  LI 1  S    0.108541   0.047751  -0.000000  -0.000000  -0.003315
    2  LI 1  S    9.139168   2.551030  -0.000000  -0.000000   0.066546
    3  LI 1  X    0.000000  -0.000000   0.015878  -0.000000   0.000000
    4  LI 1  Y    0.000000  -0.000000  -0.000000   0.015878   0.000000
    5  LI 1  Z    0.001081   0.126424  -0.000000  -0.000000  -0.024706
    6  LI 1  S   -2.811787  -0.989745  -0.000000  -0.000000   0.027730
    7  LI 1  X    0.000000  -0.000000  -0.022987  -0.000000   0.000000
    8  LI 1  Y    0.000000  -0.000000  -0.000000  -0.022987   0.000000
    9  LI 1  Z    0.014944  -0.258078  -0.000000  -0.000000   0.057894
   10  LI 1 XX   -3.051135  -0.752014  -0.000000  -0.000000  -0.040589
   11  LI 1 YY   -3.051135  -0.752014  -0.000000  -0.000000  -0.040589
   12  LI 1 ZZ   -3.038858  -0.843613  -0.000000  -0.000000  -0.033888
   13  LI 1 XY    0.000000  -0.000000  -0.000000  -0.000000   0.000000
   14  LI 1 XZ    0.000000  -0.000000  -0.000560  -0.000000   0.000000
   15  LI 1 YZ    0.000000  -0.000000  -0.000000  -0.000560   0.000000
   16  H  2  S    0.306808  -1.277955  -0.000000  -0.000000   0.015066
   17  H  2  S   -0.197584   1.146982  -0.000000  -0.000000  -0.029720
   18  H  2  X    0.000000  -0.000000   1.000077  -0.000000   0.000000
   19  H  2  Y    0.000000  -0.000000  -0.000000   1.000077   0.000000
   20  H  2  Z   -0.011400   0.002286  -0.000000  -0.000000   1.000776
 ...... END OF RHF CALCULATION ......
 STEP CPU TIME =     0.01 TOTAL CPU TIME =        0.0 (    0.0 MIN)
 TOTAL WALL CLOCK TIME=        0.1 SECONDS, CPU UTILIZATION IS  37.50%

     ----------------------------------------------------------------
     PROPERTY VALUES FOR THE RHF   SELF-CONSISTENT FIELD WAVEFUNCTION
     ----------------------------------------------------------------

          ---------------------------------------
          MULLIKEN AND LOWDIN POPULATION ANALYSES
          ---------------------------------------

               ----- POPULATIONS IN EACH AO -----
                             MULLIKEN      LOWDIN
              1  LI 1  S      1.99798     1.97949
              2  LI 1  S     -0.06099     0.09861
              3  LI 1  X      0.00000     0.00000
              4  LI 1  Y      0.00000     0.00000
              5  LI 1  Z      0.00003     0.02449
              6  LI 1  S      0.49687     0.32105
              7  LI 1  X      0.00000     0.00000
              8  LI 1  Y      0.00000     0.00000
              9  LI 1  Z      0.17353     0.15419
             10  LI 1 XX      0.01591     0.02438
             11  LI 1 YY      0.01591     0.02438
             12  LI 1 ZZ      0.02812     0.03478
             13  LI 1 XY      0.00000     0.00000
             14  LI 1 XZ      0.00000     0.00000
             15  LI 1 YZ      0.00000     0.00000
             16  H  2  S      0.32026     0.38872
             17  H  2  S      1.01234     0.94980
             18  H  2  X      0.00000     0.00000
             19  H  2  Y      0.00000     0.00000
             20  H  2  Z      0.00003     0.00009

          ----- MULLIKEN ATOMIC OVERLAP POPULATIONS -----
          (OFF-DIAGONAL ELEMENTS NEED TO BE MULTIPLIED BY 2)

             1           2

    1    2.5161248
    2    0.1512430   1.1813892

          TOTAL MULLIKEN AND LOWDIN ATOMIC POPULATIONS
       ATOM         MULL.POP.    CHARGE          LOW.POP.     CHARGE
    1 LI            2.667368    0.332632         2.661379    0.338621
    2 H             1.332632   -0.332632         1.338621   -0.338621

          -------------------------------
          BOND ORDER AND VALENCE ANALYSIS     BOND ORDER THRESHOLD=0.050
          -------------------------------

                   BOND                       BOND                       BOND
  ATOM PAIR DIST  ORDER      ATOM PAIR DIST  ORDER      ATOM PAIR DIST  ORDER
    1   2  4.100  0.889

                       TOTAL       BONDED        FREE
      ATOM            VALENCE     VALENCE     VALENCE
    1 LI                0.889       0.889       0.000
    2 H                 0.889       0.889       0.000

          ---------------------
          ELECTROSTATIC MOMENTS
          ---------------------

 POINT   1           X           Y           Z (BOHR)    CHARGE
                 0.000000    0.000000    0.973165        0.00 (A.U.)
         DX          DY          DZ         /D/  (DEBYE)
     0.000000    0.000000  -11.348705   11.348705
 ...... END OF PROPERTY EVALUATION ......
 STEP CPU TIME =     0.00 TOTAL CPU TIME =        0.0 (    0.0 MIN)
 TOTAL WALL CLOCK TIME=        0.1 SECONDS, CPU UTILIZATION IS  37.50%

     ---------------------------
     COUPLED CLUSTER CALCULATION
     ---------------------------
 CCTYP                        =CCSD(T) 
 TOTAL NUMBER OF MOS          =    20
 NUMBER OF OCCUPIED MOS       =     2
 NUMBER OF FROZEN CORE MOS    =     0
 NUMBER OF FROZEN VIRTUAL MOS =     0
 MAXIMUM CC ITERATIONS        =    30
 MAXIMUM DIIS ITERATIONS      =     5
 CONVERGENCE CRITERION FOR CC =     7
 AMPLITUDE ACCURACY THRESHOLD = 0.0E+00

     --------------------------------------------
     PARTIAL TWO ELECTRON INTEGRAL TRANSFORMATION
     --------------------------------------------

 NUMBER OF CORE MOLECULAR ORBITALS     =    0
 NUMBER OF OCCUPIED MOLECULAR ORBITALS =   20
 TOTAL NUMBER OF MOLECULAR ORBITALS    =   20
 TOTAL NUMBER OF ATOMIC ORBITALS       =   20
 THRESHOLD FOR KEEPING TRANSFORMED 2E- INTEGRALS = 1.000E-09
 AO INTEGRALS WILL BE READ IN FROM DISK...

 PLAN A: REQUIREMENTS FOR FULLY IN-MEMORY TRANSFORMATION:
 # OF WORDS AVAILABLE =              1000000
 # OF WORDS NEEDED    =               146042

 CHOOSING IN MEMORY PARTIAL TRANSFORMATION...
 TOTAL NUMBER OF TRANSFORMED 2E- INTEGRALS KEPT =         5962
 ... END OF INTEGRAL TRANSFORMATION ...
 STEP CPU TIME =     0.01 TOTAL CPU TIME =        0.0 (    0.0 MIN)
 TOTAL WALL CLOCK TIME=        0.1 SECONDS, CPU UTILIZATION IS  50.00%

   -----------------------
   COUPLED-CLUSTER PROGRAM
   -----------------------

   -------------------------------------------------------
   P.PIECUCH, S.A.KUCHARSKI, M.WLOCH, K.KOWALSKI, M.MUSIAL
   -------------------------------------------------------

 *****************************************************************
 THE FOLLOWING PAPERS SHOULD BE CITED WHEN USING COUPLED-CLUSTER
 OPTIONS:

 CCTYP = LCCD, CCD, CCSD, CCSD(T)
 P. PIECUCH, S.A. KUCHARSKI, K. KOWALSKI, AND M. MUSIAL,
 COMP. PHYS. COMMUN. 149, 71-96 (2002).

 CCTYP = R-CC, CR-CC, CCSD(TQ), CR-CC(Q)
 P. PIECUCH, S.A. KUCHARSKI, K. KOWALSKI, AND M. MUSIAL,
 COMP. PHYS. COMMUN. 149, 71-96 (2002);
 K. KOWALSKI AND P. PIECUCH, J. CHEM. PHYS. 113, 18-35 (2000);
 K. KOWALSKI AND P. PIECUCH, J. CHEM. PHYS. 113, 5644-5652 (2000).

 CCTYP = EOM-CCSD, CR-EOM
 P. PIECUCH, S.A. KUCHARSKI, K. KOWALSKI, AND M. MUSIAL,
 COMP. PHYS. COMMUN. 149, 71-96 (2002);
 K. KOWALSKI AND P. PIECUCH, J. CHEM. PHYS. 120, 1715-1738 (2004);
 M. WLOCH, J.R. GOUR, K. KOWALSKI, AND P. PIECUCH,
 J. CHEM. PHYS. 122, 214107-1 - 214107-15 (2005).

 CCTYP = CR-CCL
 P. PIECUCH, S.A. KUCHARSKI, K. KOWALSKI, AND M. MUSIAL,
 COMP. PHYS. COMMUN. 149, 71-96 (2002);
 P. PIECUCH AND M. WLOCH, J. CHEM. PHYS. 123,
 224105-1 - 224105-10 (2005).

 CCTYP = CR-EOML
 P. PIECUCH, S.A. KUCHARSKI, K. KOWALSKI, AND M. MUSIAL,
 COMP. PHYS. COMMUN. 149, 71-96 (2002);
 P. PIECUCH, J. R. GOUR, AND M. WLOCH,
 INT. J. QUANTUM CHEM. 109, 3268-3304 (2009);
 K. KOWALSKI AND P. PIECUCH,
 J. CHEM. PHYS. 120, 1715-1738 (2004).

 IN ADDITION, THE USE OF CCPRP=.TRUE. IN $CCINP AND/OR THE USE
 OF CCPRPE=.TRUE. IN $EOMINP SHOULD REFERENCE

 M. WLOCH, J.R. GOUR, K. KOWALSKI, AND P. PIECUCH,
 J. CHEM. PHYS. 122, 214107-1 - 214107-15 (2005).
 *****************************************************************


 THE FOLLOWING CALCULATIONS WILL BE PERFORMED:
                                                     CCSD   
                                                     CCSD[T]
                                                     CCSD(T)

 THE FOLLOWING ENERGY WILL BE CONSIDERED THE HIGHEST LEVEL:    CCSD(T)
 THE AVAILABLE REPLICATED MEMORY IS     1000000 WORDS.
 CONVERGENCE THRESHOLD:   1.0E-07
 MAXIMUM NUMBER OF ITERATIONS:   30

 MEMORY TO BE USED IN CC INTEGRAL SORTING IS      140808 WORDS.
 THE MINIMUM MEMORY TO ACCOMPLISH SORTING IS       47496 WORDS.
         5962 NON-ZERO TRANSFORMED 2E- INTEGRALS WERE SORTED INTO FILE 72:
            6 [IJ|KL] TYPE,          48 [AJ|KL] TYPE,
          174 [AB|IJ] TYPE,         214 [IA|BJ] TYPE,
         1672 [AB|CI] TYPE,        3848 [AB|CD] TYPE.
 TRANSFORMED INTEGRAL FILE  9 WAS READ    3 TIMES.
 ....... DONE WITH CC INTEGRAL PREPARATION .......
 STEP CPU TIME =     0.00 TOTAL CPU TIME =        0.0 (    0.0 MIN)
 TOTAL WALL CLOCK TIME=        0.1 SECONDS, CPU UTILIZATION IS  44.44%

 MEMORY REQUIRED FOR THE CCSD ITERATIONS IS       23276 WORDS.
 ITER:  1   CCSD    CORR. ENERGY:  -0.0454607576   CONV.: -5.7729E-02
 ITER:  2   CCSD    CORR. ENERGY:  -0.0510088385   CONV.: -3.6669E-02
 ITER:  3   CCSD    CORR. ENERGY:  -0.0525625812   CONV.:  1.2736E-02
 ITER:  4   CCSD    CORR. ENERGY:  -0.0512447194   CONV.:  1.9081E-01
 ITER:  5   CCSD    CORR. ENERGY:  -0.0512575180   CONV.:  1.9063E-01
 ITER:  6   CCSD    CORR. ENERGY:  -0.0515541249   CONV.:  1.9008E-01
 ITER:  7   CCSD    CORR. ENERGY:  -0.0556369925   CONV.:  1.6778E-01
 ITER:  8   CCSD    CORR. ENERGY:  -0.0594206927   CONV.:  1.5164E-01
 ITER:  9   CCSD    CORR. ENERGY:  -0.0953467182   CONV.: -2.2884E-01
 ITER: 10   CCSD    CORR. ENERGY:  -0.0782335193   CONV.: -1.9555E-02
 ITER: 11   CCSD    CORR. ENERGY:  -0.0770783347   CONV.:  1.8228E-02
 ITER: 12   CCSD    CORR. ENERGY:  -0.0785318903   CONV.:  3.6144E-03
 ITER: 13   CCSD    CORR. ENERGY:  -0.0789839350   CONV.: -1.8887E-03
 ITER: 14   CCSD    CORR. ENERGY:  -0.0788486552   CONV.: -4.1913E-04
 ITER: 15   CCSD    CORR. ENERGY:  -0.0788054817   CONV.:  2.6944E-04
 ITER: 16   CCSD    CORR. ENERGY:  -0.0788276895   CONV.: -1.4337E-04
 ITER: 17   CCSD    CORR. ENERGY:  -0.0788199124   CONV.:  4.4994E-05
 ITER: 18   CCSD    CORR. ENERGY:  -0.0788240064   CONV.: -9.6227E-06
 ITER: 19   CCSD    CORR. ENERGY:  -0.0788241707   CONV.:  7.3487E-06
 ITER: 20   CCSD    CORR. ENERGY:  -0.0788248440   CONV.: -2.8486E-06
 ITER: 21   CCSD    CORR. ENERGY:  -0.0788249471   CONV.: -6.2605E-07
 ITER: 22   CCSD    CORR. ENERGY:  -0.0788249828   CONV.: -3.8380E-07
 ITER: 23   CCSD    CORR. ENERGY:  -0.0788249964   CONV.: -2.2129E-07
 ITER: 24   CCSD    CORR. ENERGY:  -0.0788250127   CONV.: -1.7935E-07
 ITER: 25   CCSD    CORR. ENERGY:  -0.0788250163   CONV.:  3.1534E-08
 ITER: 26   CCSD    CORR. ENERGY:  -0.0788250193   CONV.:  3.1534E-08

     THE    CCSD     ITERATIONS HAVE CONVERGED

    MBPT(2) CORRELATION ENERGY:  -0.0361043605
    CCSD    CORRELATION ENERGY:  -0.0788250193

 T1 DIAGNOSTIC        =     0.23440008
 NORM OF THE T1 VECTOR=     0.46880016
 NORM OF THE T2 VECTOR=     0.91382789

 THE FIVE LARGEST T1 AMPLITUDES ARE:
 T1 AMPLITUDE IS  0.456797 FOR I=   2 -> A=   3
 T1 AMPLITUDE IS  0.072200 FOR I=   2 -> A=  10
 T1 AMPLITUDE IS  0.050148 FOR I=   2 -> A=   6
 T1 AMPLITUDE IS -0.046633 FOR I=   2 -> A=  17
 T1 AMPLITUDE IS  0.032140 FOR I=   2 -> A=   7

 THE FIVE LARGEST SPIN-UNIQUE T2 AMPLITUDES ARE:
 T2 AMPLITUDE IS -0.711048 FOR I,J=   2   2 -> A,B=   3   3
 T2 AMPLITUDE IS -0.370418 FOR I,J=   2   2 -> A,B=   3   6
 T2 AMPLITUDE IS -0.202069 FOR I,J=   2   2 -> A,B=   6   6
 T2 AMPLITUDE IS -0.061493 FOR I,J=   2   2 -> A,B=   3  17
 T2 AMPLITUDE IS -0.033781 FOR I,J=   2   2 -> A,B=   6  17
 PRINTED T2(I-ALPHA,J-BETA -> A-ALPHA,B-BETA) VALUES
 EQUAL   T2(J-ALPHA,I-BETA -> B-ALPHA,A-BETA) AMPLITUDES.

 ....... DONE WITH CC AMPLITUDE ITERATIONS .......
 STEP CPU TIME =     0.07 TOTAL CPU TIME =        0.1 (    0.0 MIN)
 TOTAL WALL CLOCK TIME=        0.2 SECONDS, CPU UTILIZATION IS  68.75%

 MEMORY REQUIRED FOR NONITERATIVE TRIPLES (T3WT2  ) IS        26136 WORDS.

                      SUMMARY OF RESULTS

      REFERENCE ENERGY:       -7.8539605547
        MBPT(2) ENERGY:       -7.8900649153   CORR.E=  -0.0361043605
        CCSD    ENERGY:       -7.9327855741   CORR.E=  -0.0788250193
        CCSD[T] ENERGY:       -7.9330722863   CORR.E=  -0.0791117316
        CCSD(T) ENERGY:       -7.9330461700   CORR.E=  -0.0790856152

 THE FOLLOWING METHOD AND ENERGY WILL BE CONSIDERED THE HIGHEST LEVEL RESULT:
 COUPLED-CLUSTER ENERGY E(   CCSD(T)) =       -7.9330461700

 ..... DONE WITH CC NON-ITERATIVE TRIPLES CORRECTIONS .....
 STEP CPU TIME =     0.00 TOTAL CPU TIME =        0.1 (    0.0 MIN)
 TOTAL WALL CLOCK TIME=        0.2 SECONDS, CPU UTILIZATION IS  68.75%
               580000  WORDS OF DYNAMIC MEMORY USED
 EXECUTION OF GAMESS TERMINATED NORMALLY Thu Jan 17 17:51:47 2019
 DDI: 263640 bytes (0.3 MB / 0 MWords) used by master data server.

 ----------------------------------------
 CPU timing information for all processes
 ========================================
 0: 0.88 + 0.31 = 0.120
 1: 0.01 + 0.02 = 0.03
 ----------------------------------------
 ddikick.x: exited gracefully.
unset echo
----- accounting info -----
Files used on the master node bach.ad64.riken.go.jp were:
-rw-------  1 maho  staff      258  1 17 17:51 .//LiH.631g/4.1/LiH.631g.CCSDT.4.1.gamess.F05
-rw-r--r--  1 maho  staff   180016  1 17 17:51 .//LiH.631g/4.1/LiH.631g.CCSDT.4.1.gamess.F08
-rw-r--r--  1 maho  staff   181704  1 17 17:51 .//LiH.631g/4.1/LiH.631g.CCSDT.4.1.gamess.F09
-rw-r--r--  1 maho  staff  1603280  1 17 17:51 .//LiH.631g/4.1/LiH.631g.CCSDT.4.1.gamess.F10
-rw-r--r--  1 maho  staff   388608  1 17 17:51 .//LiH.631g/4.1/LiH.631g.CCSDT.4.1.gamess.F70
-rw-r--r--  1 maho  staff   106560  1 17 17:51 .//LiH.631g/4.1/LiH.631g.CCSDT.4.1.gamess.F71
-rw-r--r--  1 maho  staff  2286144  1 17 17:51 .//LiH.631g/4.1/LiH.631g.CCSDT.4.1.gamess.F72
-rw-r--r--  1 maho  staff     1152  1 17 17:51 .//LiH.631g/4.1/LiH.631g.CCSDT.4.1.gamess.F73
-rw-r--r--  1 maho  staff    20736  1 17 17:51 .//LiH.631g/4.1/LiH.631g.CCSDT.4.1.gamess.F74
-rw-r--r--  1 maho  staff        0  1 17 17:51 .//LiH.631g/4.1/LiH.631g.CCSDT.4.1.gamess.F75
-rw-r--r--  1 maho  staff        0  1 17 17:51 .//LiH.631g/4.1/LiH.631g.CCSDT.4.1.gamess.F76
-rw-r--r--  1 maho  staff        0  1 17 17:51 .//LiH.631g/4.1/LiH.631g.CCSDT.4.1.gamess.F77
-rw-r--r--  1 maho  staff     7352  1 17 17:51 .//LiH.631g/4.1/LiH.631g.CCSDT.4.1.gamess.dat
-rw-------  1 maho  staff      258  1 17 17:51 .//LiH.631g/4.1/LiH.631g.CCSDT.4.1.gamess.inp
-rw-r--r--  1 maho  staff    36017  1 17 17:51 .//LiH.631g/4.1/LiH.631g.CCSDT.4.1.gamess.log
ls: No match.
ls: No match.
ls: No match.
2019年 1月17日 木曜日 17時51分50秒 JST
0.200u 0.123s 0:03.55 9.0%	0+0k 2+2io 0pf+0w
