----- GAMESS execution script 'rungms' -----
This job is running on host bach.ad64.riken.go.jp
under operating system Darwin at 2019年 1月17日 木曜日 17時44分08秒 JST
Available scratch disk space (Kbyte units) at beginning of the job is
Filesystem   1024-blocks       Used Available Capacity iused      ifree %iused  Mounted on
/dev/disk2s2  1953178672 1144747332 808431340    59%  984065 4293983214    0%   /Volumes/Users
GAMESS temporary binary files will be written to ./
GAMESS supplementary output files will be written to ./
Copying input file LiH.631g/0.9/LiH.631g.CCSDT.0.9.gamess.inp to your run's scratch directory...
cp LiH.631g/0.9/LiH.631g.CCSDT.0.9.gamess.inp .//LiH.631g/0.9/LiH.631g.CCSDT.0.9.gamess.F05
unset echo
/Volumes/Users/maho/bin/gamess//ddikick.x /Volumes/Users/maho/bin/gamess//gamess.00.x LiH.631g/0.9/LiH.631g.CCSDT.0.9.gamess -ddi 1 1 bach.ad64.riken.go.jp -scr ./

 Distributed Data Interface kickoff program.
 Initiating 1 compute processes on 1 nodes to run the following command:
 /Volumes/Users/maho/bin/gamess//gamess.00.x LiH.631g/0.9/LiH.631g.CCSDT.0.9.gamess 

          ******************************************************
          *         GAMESS VERSION = 18 AUG 2016 (R1)          *
          *             FROM IOWA STATE UNIVERSITY             *
          * M.W.SCHMIDT, K.K.BALDRIDGE, J.A.BOATZ, S.T.ELBERT, *
          *   M.S.GORDON, J.H.JENSEN, S.KOSEKI, N.MATSUNAGA,   *
          *          K.A.NGUYEN, S.J.SU, T.L.WINDUS,           *
          *       TOGETHER WITH M.DUPUIS, J.A.MONTGOMERY       *
          *         J.COMPUT.CHEM.  14, 1347-1363(1993)        *
          **************** 64 BIT APPLE VERSION ****************

  SINCE 1993, STUDENTS AND POSTDOCS WORKING AT IOWA STATE UNIVERSITY
  AND ALSO IN THEIR VARIOUS JOBS AFTER LEAVING ISU HAVE MADE IMPORTANT
  CONTRIBUTIONS TO THE CODE:
     IVANA ADAMOVIC, CHRISTINE AIKENS, YURI ALEXEEV, POOJA ARORA,
     ANDREY ASADCHEV, ROB BELL, PRADIPTA BANDYOPADHYAY, JONATHAN BENTZ,
     BRETT BODE, KURT BRORSEN, CALEB CARLIN, GALINA CHABAN, WEI CHEN,
     CHEOL HO CHOI, PAUL DAY, ALBERT DEFUSCO, NUWAN DESILVA, TIM DUDLEY,
     DMITRI FEDOROV, GRAHAM FLETCHER, MARK FREITAG, KURT GLAESEMANN,
     DAN KEMP, GRANT MERRILL, NORIYUKI MINEZAWA, JONATHAN MULLIN,
     TAKESHI NAGATA, SEAN NEDD, HEATHER NETZLOFF, BOSILJKA NJEGIC, RYAN OLSON,
     MIKE PAK, SPENCER PRUITT, LUKE ROSKOP, JIM SHOEMAKER, LYUDMILA SLIPCHENKO,
     TONY SMITH, SAROM SOK LEANG, JIE SONG, TETSUYA TAKETSUGU, SIMON WEBB,
     PENG XU, SOOHAENG YOO, FEDERICO ZAHARIEV

  ADDITIONAL CODE HAS BEEN PROVIDED BY COLLABORATORS IN OTHER GROUPS:
     IOWA STATE UNIVERSITY:
          JOE IVANIC, AARON WEST, LAIMUTIS BYTAUTAS, KLAUS RUEDENBERG
     UNIVERSITY OF TOKYO: KIMIHIKO HIRAO, TAKAHITO NAKAJIMA,
          TAKAO TSUNEDA, MUNEAKI KAMIYA, SUSUMU YANAGISAWA,
          KIYOSHI YAGI, MAHITO CHIBA, SEIKEN TOKURA, NAOAKI KAWAKAMI
     UNIVERSITY OF AARHUS: FRANK JENSEN
     UNIVERSITY OF IOWA: VISVALDAS KAIRYS, HUI LI
     NATIONAL INST. OF STANDARDS AND TECHNOLOGY: WALT STEVENS, DAVID GARMER
     UNIVERSITY OF PISA: BENEDETTA MENNUCCI, JACOPO TOMASI
     UNIVERSITY OF MEMPHIS: HENRY KURTZ, PRAKASHAN KORAMBATH
     UNIVERSITY OF ALBERTA: TOBY ZENG, MARIUSZ KLOBUKOWSKI
     UNIVERSITY OF NEW ENGLAND: MARK SPACKMAN
     MIE UNIVERSITY: HIROAKI UMEDA
     NAT. INST. OF ADVANCED INDUSTRIAL SCIENCE AND TECHNOLOGY: KAZUO KITAURA
     MICHIGAN STATE UNIVERSITY:
          KAROL KOWALSKI, MARTA WLOCH, JEFFREY GOUR, JESSE LUTZ,
          WEI LI, PIOTR PIECUCH
     UNIVERSITY OF SILESIA: MONIKA MUSIAL, STANISLAW KUCHARSKI
     FACULTES UNIVERSITAIRES NOTRE-DAME DE LA PAIX:
          OLIVIER QUINET, BENOIT CHAMPAGNE
     UNIVERSITY OF CALIFORNIA - SANTA BARBARA: BERNARD KIRTMAN
     INSTITUTE FOR MOLECULAR SCIENCE:
          KAZUYA ISHIMURA, MICHIO KATOUDA, AND SHIGERU NAGASE
     UNIVERSITY OF NOTRE DAME: ANNA POMOGAEVA, DAN CHIPMAN
     KYUSHU UNIVERSITY:
          HARUYUKI NAKANO,
          FENG LONG GU, JACEK KORCHOWIEC, MARCIN MAKOWSKI, AND YURIKO AOKI,
          HIROTOSHI MORI AND EISAKU MIYOSHI
     PENNSYLVANIA STATE UNIVERSITY:
          TZVETELIN IORDANOV, CHET SWALINA, JONATHAN SKONE,
          SHARON HAMMES-SCHIFFER
     WASEDA UNIVERSITY:
          MASATO KOBAYASHI, TOMOKO AKAMA, TSUGUKI TOUMA,
          TAKESHI YOSHIKAWA, YASUHIRO IKABATA, JUNJI SEINO,
          YUYA NAKAJIMA, HIROMI NAKAI
     NANJING UNIVERSITY: SHUHUA LI
     UNIVERSITY OF NEBRASKA:
          PEIFENG SU, DEJUN SI, NANDUN THELLAMUREGE, YALI WANG, HUI LI
     UNIVERSITY OF ZURICH: ROBERTO PEVERATI, KIM BALDRIDGE
     N. COPERNICUS UNIVERSITY AND JACKSON STATE UNIVERSITY:
          MARIA BARYSZ
     UNIVERSITY OF COPENHAGEN: Jimmy Kromann, CASPER STEINMANN
     TOKYO INSTITUTE OF TECHNOLOGY: HIROYA NAKATA
     NAGOYA UNIVERSITY: YOSHIO NISHIMOTO, STEPHAN IRLE
     MOSCOW STATE UNIVERSITY: VLADIMIR MIRONOV

 EXECUTION OF GAMESS BEGUN Thu Jan 17 17:44:09 2019

            ECHO OF THE FIRST FEW INPUT CARDS -
 INPUT CARD> $CONTRL MULT=1 SCFTYP=RHF CCTYP=CCSD(T) $END                                   
 INPUT CARD> $BASIS GBASIS=N31 NGAUSS=6 NDFUNC=1 NPFUNC=1 $END                              
 INPUT CARD> $CCINP NCORE=0 $END                                                            
 INPUT CARD> $GUESS GUESS=HUCKEL $END                                                       
 INPUT CARD> $DATA                                                                          
 INPUT CARD>LiH...HF...6-31G* basis                                                         
 INPUT CARD>Cnv   2                                                                         
 INPUT CARD>                                                                                
 INPUT CARD>Li    3.0    0.0      0.0     0.0                                               
 INPUT CARD>H     1.0    0.0      0.0     0.9                                               
 INPUT CARD> $END                                                                           
    1000000 WORDS OF MEMORY AVAILABLE

     BASIS OPTIONS
     -------------
     GBASIS=N31          IGAUSS=       6      POLAR=POPN31  
     NDFUNC=       1     NFFUNC=       0     DIFFSP=       F
     NPFUNC=       1      DIFFS=       F     BASNAM=        


     RUN TITLE
     ---------
 LiH...HF...6-31G* basis                                                         

 THE POINT GROUP OF THE MOLECULE IS CNV     
 THE ORDER OF THE PRINCIPAL AXIS IS     2

 ATOM      ATOMIC                      COORDINATES (BOHR)
           CHARGE         X                   Y                   Z
 LI          3.0     0.0000000000        0.0000000000        0.0000000000
 H           1.0     0.0000000000        0.0000000000        1.7007533889

          INTERNUCLEAR DISTANCES (ANGS.)
          ------------------------------

                1 LI         2 H     

   1 LI      0.0000000    0.9000000 *
   2 H       0.9000000 *  0.0000000  

  * ... LESS THAN  3.000


     ATOMIC BASIS SET
     ----------------
 THE CONTRACTED PRIMITIVE FUNCTIONS HAVE BEEN UNNORMALIZED
 THE CONTRACTED BASIS FUNCTIONS ARE NOW NORMALIZED TO UNITY

  SHELL TYPE  PRIMITIVE        EXPONENT          CONTRACTION COEFFICIENT(S)

 LI        

      1   S       1           642.4189150    0.002142607810
      1   S       2            96.7985153    0.016208871501
      1   S       3            22.0911212    0.077315572504
      1   S       4             6.2010702    0.245786052013
      1   S       5             1.9351177    0.470189004025
      1   S       6             0.6367358    0.345470845019

      2   L       7             2.3249184   -0.035091745735    0.008941508043
      2   L       8             0.6324304   -0.191232843103    0.141009464046
      2   L       9             0.0790534    1.083987794916    0.945363695309

      3   L      10             0.0359620    1.000000000000    1.000000000000

      4   D      11             0.2000000    1.000000000000

 H         

      5   S      12            18.7311370    0.033494604338
      5   S      13             2.8253944    0.234726953484
      5   S      14             0.6401217    0.813757326146

      6   S      15             0.1612778    1.000000000000

      7   P      16             1.1000000    1.000000000000

 TOTAL NUMBER OF BASIS SET SHELLS             =    7
 NUMBER OF CARTESIAN GAUSSIAN BASIS FUNCTIONS =   20
 NUMBER OF ELECTRONS                          =    4
 CHARGE OF MOLECULE                           =    0
 SPIN MULTIPLICITY                            =    1
 NUMBER OF OCCUPIED ORBITALS (ALPHA)          =    2
 NUMBER OF OCCUPIED ORBITALS (BETA )          =    2
 TOTAL NUMBER OF ATOMS                        =    2
 THE NUCLEAR REPULSION ENERGY IS        1.7639241641

 THIS MOLECULE IS RECOGNIZED AS BEING LINEAR,
 ORBITAL LZ DEGENERACY TOLERANCE ETOLLZ= 1.00E-06

     $CONTRL OPTIONS
     ---------------
 SCFTYP=RHF          RUNTYP=ENERGY       EXETYP=RUN     
 MPLEVL=       0     CITYP =NONE         CCTYP =CCSD(T)      VBTYP =NONE    
 DFTTYP=NONE         TDDFT =NONE    
 MULT  =       1     ICHARG=       0     NZVAR =       0     COORD =UNIQUE  
 PP    =NONE         RELWFN=NONE         LOCAL =NONE         NUMGRD=       F
 ISPHER=      -1     NOSYM =       0     MAXIT =      30     UNITS =ANGS    
 PLTORB=       F     MOLPLT=       F     AIMPAC=       F     FRIEND=        
 NPRINT=       7     IREST =       0     GEOM  =INPUT   
 NORMF =       0     NORMP =       0     ITOL  =      20     ICUT  =       9
 INTTYP=BEST         GRDTYP=BEST         QMTTOL= 1.0E-06

     $SYSTEM OPTIONS
     ---------------
  REPLICATED MEMORY=     1000000 WORDS (ON EVERY NODE).
 DISTRIBUTED MEMDDI=           0 MILLION WORDS IN AGGREGATE,
 MEMDDI DISTRIBUTED OVER   1 PROCESSORS IS           0 WORDS/PROCESSOR.
 TOTAL MEMORY REQUESTED ON EACH PROCESSOR=     1000000 WORDS.
 TIMLIM=      525600.00 MINUTES, OR     365.0 DAYS.
 PARALL= F  BALTYP=  DLB     KDIAG=    0  COREFL= F
 MXSEQ2=     300 MXSEQ3=     150  mem10=         0

          ----------------
          PROPERTIES INPUT
          ----------------

     MOMENTS            FIELD           POTENTIAL          DENSITY
 IEMOM =       1   IEFLD =       0   IEPOT =       0   IEDEN =       0
 WHERE =COMASS     WHERE =NUCLEI     WHERE =NUCLEI     WHERE =NUCLEI  
 OUTPUT=BOTH       OUTPUT=BOTH       OUTPUT=BOTH       OUTPUT=BOTH    
 IEMINT=       0   IEFINT=       0                     IEDINT=       0
                                                       MORB  =       0
          EXTRAPOLATION IN EFFECT
          SOSCF IN EFFECT
 ORBITAL PRINTING OPTION: NPREO=     1    20     2     1

     -------------------------------
     INTEGRAL TRANSFORMATION OPTIONS
     -------------------------------
     NWORD  =            0
     CUTOFF = 1.0E-09     MPTRAN =       0
     DIRTRF =       F     AOINTS =DUP     

          ----------------------
          INTEGRAL INPUT OPTIONS
          ----------------------
 NOPK  =       1 NORDER=       0 SCHWRZ=       F

     ------------------------------------------
     THE POINT GROUP IS CNV, NAXIS= 2, ORDER= 4
     ------------------------------------------

     DIMENSIONS OF THE SYMMETRY SUBSPACES ARE
 A1  =   11     A2  =    1     B1  =    4     B2  =    4

 ..... DONE SETTING UP THE RUN .....
 STEP CPU TIME =     0.00 TOTAL CPU TIME =        0.0 (    0.0 MIN)
 TOTAL WALL CLOCK TIME=        0.0 SECONDS, CPU UTILIZATION IS   0.00%

          ********************
          1 ELECTRON INTEGRALS
          ********************
 ...... END OF ONE-ELECTRON INTEGRALS ......
 STEP CPU TIME =     0.00 TOTAL CPU TIME =        0.0 (    0.0 MIN)
 TOTAL WALL CLOCK TIME=        0.0 SECONDS, CPU UTILIZATION IS   0.00%

          -------------
          GUESS OPTIONS
          -------------
          GUESS =HUCKEL            NORB  =       0          NORDER=       0
          MIX   =       F          PRTMO =       F          PUNMO =       F
          TOLZ  = 1.0E-08          TOLE  = 1.0E-05
          SYMDEN=       F          PURIFY=       F

 INITIAL GUESS ORBITALS GENERATED BY HUCKEL   ROUTINE.
 HUCKEL GUESS REQUIRES      4469 WORDS.

 SYMMETRIES FOR INITIAL GUESS ORBITALS FOLLOW.   BOTH SET(S).
     2 ORBITALS ARE OCCUPIED (    1 CORE ORBITALS).
     2=A1       3=A1       4=A1       5=A1       6=A1       7=A1       8=A1  
     9=A1      10=A1      11=A1      12=A2  
 ...... END OF INITIAL ORBITAL SELECTION ......
 STEP CPU TIME =     0.00 TOTAL CPU TIME =        0.0 (    0.0 MIN)
 TOTAL WALL CLOCK TIME=        0.0 SECONDS, CPU UTILIZATION IS   0.00%

                    ----------------------
                    AO INTEGRAL TECHNOLOGY
                    ----------------------
     S,P,L SHELL ROTATED AXIS INTEGRALS, REPROGRAMMED BY
        KAZUYA ISHIMURA (IMS) AND JOSE SIERRA (SYNSTAR).
     S,P,D,L SHELL ROTATED AXIS INTEGRALS PROGRAMMED BY
        KAZUYA ISHIMURA (INSTITUTE FOR MOLECULAR SCIENCE).
     S,P,D,F,G SHELL TO TOTAL QUARTET ANGULAR MOMENTUM SUM 5,
        ERIC PROGRAM BY GRAHAM FLETCHER (ELORET AND NASA ADVANCED
        SUPERCOMPUTING DIVISION, AMES RESEARCH CENTER).
     S,P,D,F,G,L SHELL GENERAL RYS QUADRATURE PROGRAMMED BY
        MICHEL DUPUIS (PACIFIC NORTHWEST NATIONAL LABORATORY).

          --------------------
          2 ELECTRON INTEGRALS
          --------------------

 THE -PK- OPTION IS OFF, THE INTEGRALS ARE NOT IN SUPERMATRIX FORM.
 STORING   15000 INTEGRALS/RECORD ON DISK, USING 12 BYTES/INTEGRAL.
 TWO ELECTRON INTEGRAL EVALUATION REQUIRES   90424 WORDS OF MEMORY.
 II,JST,KST,LST =  1  1  1  1 NREC =         1 INTLOC =    1
 II,JST,KST,LST =  2  1  1  1 NREC =         1 INTLOC =    2
 II,JST,KST,LST =  3  1  1  1 NREC =         1 INTLOC =   34
 II,JST,KST,LST =  4  1  1  1 NREC =         1 INTLOC =  214
 II,JST,KST,LST =  5  1  1  1 NREC =         1 INTLOC = 1189
 II,JST,KST,LST =  6  1  1  1 NREC =         1 INTLOC = 1867
 II,JST,KST,LST =  7  1  1  1 NREC =         1 INTLOC = 2713
 TOTAL NUMBER OF NONZERO TWO-ELECTRON INTEGRALS =                5596
          1 INTEGRAL RECORDS WERE STORED ON DISK FILE  8.
  ...... END OF TWO-ELECTRON INTEGRALS .....
 STEP CPU TIME =     0.02 TOTAL CPU TIME =        0.0 (    0.0 MIN)
 TOTAL WALL CLOCK TIME=        0.0 SECONDS, CPU UTILIZATION IS  66.67%

          --------------------------
                 RHF SCF CALCULATION
          --------------------------

     NUCLEAR ENERGY =         1.7639241641
     MAXIT =   30     NPUNCH=    2
     EXTRAP=T  DAMP=F  SHIFT=F  RSTRCT=F  DIIS=F  DEM=F  SOSCF=T
     DENSITY MATRIX CONV=  1.00E-06
     SOSCF WILL OPTIMIZE      36 ORBITAL ROTATIONS, SOGTOL=   0.250
     MEMORY REQUIRED FOR RHF ITERS=     33224 WORDS.

 ITER EX DEM     TOTAL ENERGY        E CHANGE  DENSITY CHANGE     ORB. GRAD
   1  0  0       -7.7456326181    -7.7456326181   0.283508144   0.000000000
          ---------------START SECOND ORDER SCF---------------
   2  1  0       -7.8036230345    -0.0579904164   0.126024309   0.019700657
   3  2  0       -7.8100152194    -0.0063921849   0.110683946   0.009948780
   4  3  0       -7.8119904834    -0.0019752640   0.012798201   0.001802418
   5  4  0       -7.8120330496    -0.0000425661   0.002807821   0.000353897
   6  5  0       -7.8120340858    -0.0000010362   0.000231448   0.000041049
   7  6  0       -7.8120340962    -0.0000000104   0.000033159   0.000005820
   8  7  0       -7.8120340966    -0.0000000004   0.000003778   0.000001155
   9  8  0       -7.8120340966    -0.0000000000   0.000001160   0.000000274
  10  9  0       -7.8120340966    -0.0000000000   0.000000065   0.000000016

 RHF HAS CONVERGED, NOW COMPUTING EXACT TOTAL FOCK MATRIX
 FOR USE DURING THE COUPLED CLUSTER CALCULATION THAT FOLLOWS.

          -----------------
          DENSITY CONVERGED
          -----------------
     TIME TO FORM FOCK OPERATORS=       0.0 SECONDS (       0.0 SEC/ITER)
     TIME TO SOLVE SCF EQUATIONS=       0.0 SECONDS (       0.0 SEC/ITER)

 FINAL RHF ENERGY IS       -7.8120340966 AFTER  10 ITERATIONS

 LZ VALUE ANALYSIS FOR THE MOS
 ----------------------------------------
 MO     1 (    1) HAS LZ(WEIGHT)= 0.00(100.0%) 
 MO     2 (    2) HAS LZ(WEIGHT)= 0.00(100.0%) 
 MO     3 (    3) HAS LZ(WEIGHT)= 0.00(100.0%) 
 MO     4 (    4) HAS LZ(WEIGHT)=-1.00( 50.0%)  1.00( 50.0%) 
 MO     5 (    4) HAS LZ(WEIGHT)=-1.00( 50.0%)  1.00( 50.0%) 
 MO     6 (    5) HAS LZ(WEIGHT)= 0.00(100.0%) 
 MO     7 (    6) HAS LZ(WEIGHT)= 0.00(100.0%) 
 MO     8 (    7) HAS LZ(WEIGHT)=-1.00( 50.0%)  1.00( 50.0%) 
 MO     9 (    7) HAS LZ(WEIGHT)=-1.00( 50.0%)  1.00( 50.0%) 
 MO    10 (    8) HAS LZ(WEIGHT)= 0.00(100.0%) 
 MO    11 (    9) HAS LZ(WEIGHT)=-1.00( 50.0%)  1.00( 50.0%) 
 MO    12 (    9) HAS LZ(WEIGHT)=-1.00( 50.0%)  1.00( 50.0%) 
 MO    13 (   10) HAS LZ(WEIGHT)=-2.00( 50.0%)  2.00( 50.0%) 
 MO    14 (   10) HAS LZ(WEIGHT)=-2.00( 50.0%)  2.00( 50.0%) 
 MO    15 (   11) HAS LZ(WEIGHT)= 0.00(100.0%) 
 MO    16 (   12) HAS LZ(WEIGHT)= 0.00(100.0%) 
 MO    17 (   13) HAS LZ(WEIGHT)= 0.00(100.0%) 
 MO    18 (   14) HAS LZ(WEIGHT)=-1.00( 50.0%)  1.00( 50.0%) 
 MO    19 (   14) HAS LZ(WEIGHT)=-1.00( 50.0%)  1.00( 50.0%) 
 MO    20 (   15) HAS LZ(WEIGHT)= 0.00(100.0%) 

          ------------
          EIGENVECTORS
          ------------

                      1          2          3          4          5
                   -2.4641    -0.3179     0.0158     0.0649     0.0649
                     A1         A1         A1         B2         B1  
    1  LI 1  S    0.991122  -0.249026  -0.078509  -0.000000  -0.000000
    2  LI 1  S   -0.015638   0.295249  -0.283025  -0.000000  -0.000000
    3  LI 1  X    0.000000  -0.000000   0.000000  -0.000000  -0.006259
    4  LI 1  Y    0.000000  -0.000000   0.000000  -0.006259  -0.000000
    5  LI 1  Z   -0.004188   0.449525  -0.104366  -0.000000  -0.000000
    6  LI 1  S    0.003966   0.078605   1.014266  -0.000000  -0.000000
    7  LI 1  X    0.000000  -0.000000   0.000000  -0.000000   1.003871
    8  LI 1  Y    0.000000  -0.000000   0.000000   1.003871  -0.000000
    9  LI 1  Z    0.003536  -0.136248  -0.505327  -0.000000  -0.000000
   10  LI 1 XX    0.009739   0.006172   0.028082  -0.000000  -0.000000
   11  LI 1 YY    0.009739   0.006172   0.028082  -0.000000  -0.000000
   12  LI 1 ZZ    0.010288   0.060510   0.089667  -0.000000  -0.000000
   13  LI 1 XY    0.000000  -0.000000   0.000000  -0.000000  -0.000000
   14  LI 1 XZ    0.000000  -0.000000   0.000000  -0.000000  -0.027779
   15  LI 1 YZ    0.000000  -0.000000   0.000000  -0.027779  -0.000000
   16  H  2  S    0.026622   0.372741  -0.082253  -0.000000  -0.000000
   17  H  2  S   -0.001767   0.228381  -0.195054  -0.000000  -0.000000
   18  H  2  X    0.000000  -0.000000   0.000000  -0.000000   0.012339
   19  H  2  Y    0.000000  -0.000000   0.000000   0.012339  -0.000000
   20  H  2  Z   -0.005521  -0.012524   0.010719  -0.000000  -0.000000

                      6          7          8          9         10
                    0.1276     0.1954     0.2226     0.2226     0.4933
                     A1         A1         B2         B1         A1  
    1  LI 1  S   -0.020645  -0.015980   0.000000   0.000000   0.193735
    2  LI 1  S   -0.673486   2.341700   0.000000   0.000000   1.985861
    3  LI 1  X   -0.000000   0.000000   0.000000   1.670232  -0.000000
    4  LI 1  Y   -0.000000   0.000000   1.670232   0.000000  -0.000000
    5  LI 1  Z   -0.783466  -1.029881   0.000000   0.000000   0.886266
    6  LI 1  S    0.954497  -1.943505   0.000000   0.000000  -0.883257
    7  LI 1  X   -0.000000   0.000000   0.000000  -1.339979  -0.000000
    8  LI 1  Y   -0.000000   0.000000  -1.339979   0.000000  -0.000000
    9  LI 1  Z    1.353423   0.652928   0.000000   0.000000  -0.442697
   10  LI 1 XX    0.120050  -0.206109   0.000000   0.000000   0.123986
   11  LI 1 YY    0.120050  -0.206109   0.000000   0.000000   0.123986
   12  LI 1 ZZ    0.073241  -0.163229   0.000000   0.000000  -0.996855
   13  LI 1 XY   -0.000000   0.000000   0.000000   0.000000  -0.000000
   14  LI 1 XZ   -0.000000   0.000000   0.000000  -0.041737  -0.000000
   15  LI 1 YZ   -0.000000   0.000000  -0.041737   0.000000  -0.000000
   16  H  2  S   -0.088921  -0.004751   0.000000   0.000000  -0.155029
   17  H  2  S   -0.213566   0.237548   0.000000   0.000000  -0.604414
   18  H  2  X   -0.000000   0.000000   0.000000   0.008161  -0.000000
   19  H  2  Y   -0.000000   0.000000   0.008161   0.000000  -0.000000
   20  H  2  Z   -0.007724  -0.042244   0.000000   0.000000   0.029166

                     11         12         13         14         15
                    0.5720     0.5720     0.5908     0.5908     0.9051
                     B1         B2         A2         A1         A1  
    1  LI 1  S    0.000000   0.000000   0.000000  -0.000000   0.768155
    2  LI 1  S    0.000000   0.000000   0.000000  -0.000000   8.085234
    3  LI 1  X    0.071630   0.000000   0.000000  -0.000000   0.000000
    4  LI 1  Y    0.000000   0.071630   0.000000  -0.000000   0.000000
    5  LI 1  Z    0.000000   0.000000   0.000000  -0.000000   2.273887
    6  LI 1  S    0.000000   0.000000   0.000000  -0.000000  -2.807621
    7  LI 1  X   -0.032563   0.000000   0.000000  -0.000000   0.000000
    8  LI 1  Y    0.000000  -0.032563   0.000000  -0.000000   0.000000
    9  LI 1  Z    0.000000   0.000000   0.000000  -0.000000  -0.909863
   10  LI 1 XX    0.000000   0.000000   0.000000  -0.866025  -2.179633
   11  LI 1 YY    0.000000   0.000000   0.000000   0.866025  -2.179633
   12  LI 1 ZZ    0.000000   0.000000   0.000000  -0.000000  -0.729747
   13  LI 1 XY    0.000000   0.000000   1.000000  -0.000000   0.000000
   14  LI 1 XZ    1.005206   0.000000   0.000000  -0.000000   0.000000
   15  LI 1 YZ    0.000000   1.005206   0.000000  -0.000000   0.000000
   16  H  2  S    0.000000   0.000000   0.000000  -0.000000  -0.681064
   17  H  2  S    0.000000   0.000000   0.000000  -0.000000  -2.255321
   18  H  2  X   -0.018302   0.000000   0.000000  -0.000000   0.000000
   19  H  2  Y    0.000000  -0.018302   0.000000  -0.000000   0.000000
   20  H  2  Z    0.000000   0.000000   0.000000  -0.000000   0.097023

                     16         17         18         19         20
                    1.2242     1.4820     2.6384     2.6384     2.6400
                     A1         A1         B2         B1         A1  
    1  LI 1  S    0.038131  -0.631627  -0.000000  -0.000000   0.459320
    2  LI 1  S    6.914324   0.711046  -0.000000  -0.000000   1.665104
    3  LI 1  X   -0.000000   0.000000  -0.000000  -0.391211  -0.000000
    4  LI 1  Y   -0.000000   0.000000  -0.391211  -0.000000  -0.000000
    5  LI 1  Z   -0.383738  -1.968363  -0.000000  -0.000000   0.273326
    6  LI 1  S   -1.996096  -0.175336  -0.000000  -0.000000  -0.530387
    7  LI 1  X   -0.000000   0.000000  -0.000000   0.230972  -0.000000
    8  LI 1  Y   -0.000000   0.000000   0.230972  -0.000000  -0.000000
    9  LI 1  Z    0.320471   0.471763  -0.000000  -0.000000  -0.090192
   10  LI 1 XX   -2.181003  -1.130599  -0.000000  -0.000000  -0.288213
   11  LI 1 YY   -2.181003  -1.130599  -0.000000  -0.000000  -0.288213
   12  LI 1 ZZ   -2.608164  -1.875455  -0.000000  -0.000000  -0.568756
   13  LI 1 XY   -0.000000   0.000000  -0.000000  -0.000000  -0.000000
   14  LI 1 XZ   -0.000000   0.000000  -0.000000  -0.365477  -0.000000
   15  LI 1 YZ   -0.000000   0.000000  -0.365477  -0.000000  -0.000000
   16  H  2  S    0.837755  -0.924726  -0.000000  -0.000000   0.306490
   17  H  2  S   -0.569603   3.854429  -0.000000  -0.000000  -0.715274
   18  H  2  X   -0.000000   0.000000  -0.000000   1.096653  -0.000000
   19  H  2  Y   -0.000000   0.000000   1.096653  -0.000000  -0.000000
   20  H  2  Z   -0.040150   0.172669  -0.000000  -0.000000   1.083932
 ...... END OF RHF CALCULATION ......
 STEP CPU TIME =     0.01 TOTAL CPU TIME =        0.0 (    0.0 MIN)
 TOTAL WALL CLOCK TIME=        0.0 SECONDS, CPU UTILIZATION IS 100.00%

     ----------------------------------------------------------------
     PROPERTY VALUES FOR THE RHF   SELF-CONSISTENT FIELD WAVEFUNCTION
     ----------------------------------------------------------------

          ---------------------------------------
          MULLIKEN AND LOWDIN POPULATION ANALYSES
          ---------------------------------------

               ----- POPULATIONS IN EACH AO -----
                             MULLIKEN      LOWDIN
              1  LI 1  S      1.99326     1.90402
              2  LI 1  S      0.39205     0.18913
              3  LI 1  X      0.00000     0.00000
              4  LI 1  Y      0.00000     0.00000
              5  LI 1  Z      0.53549     0.37092
              6  LI 1  S      0.09228     0.14014
              7  LI 1  X      0.00000     0.00000
              8  LI 1  Y      0.00000     0.00000
              9  LI 1  Z     -0.09662     0.02556
             10  LI 1 XX      0.00730     0.05607
             11  LI 1 YY      0.00730     0.05607
             12  LI 1 ZZ      0.07999     0.16370
             13  LI 1 XY      0.00000     0.00000
             14  LI 1 XZ      0.00000     0.00000
             15  LI 1 YZ      0.00000     0.00000
             16  H  2  S      0.57933     0.52716
             17  H  2  S      0.40817     0.51664
             18  H  2  X      0.00000     0.00000
             19  H  2  Y      0.00000     0.00000
             20  H  2  Z      0.00145     0.05059

          ----- MULLIKEN ATOMIC OVERLAP POPULATIONS -----
          (OFF-DIAGONAL ELEMENTS NEED TO BE MULTIPLIED BY 2)

             1           2

    1    2.6301197
    2    0.3809329   0.6080146

          TOTAL MULLIKEN AND LOWDIN ATOMIC POPULATIONS
       ATOM         MULL.POP.    CHARGE          LOW.POP.     CHARGE
    1 LI            3.011053   -0.011053         2.905613    0.094387
    2 H             0.988947    0.011053         1.094387   -0.094387

          -------------------------------
          BOND ORDER AND VALENCE ANALYSIS     BOND ORDER THRESHOLD=0.050
          -------------------------------

                   BOND                       BOND                       BOND
  ATOM PAIR DIST  ORDER      ATOM PAIR DIST  ORDER      ATOM PAIR DIST  ORDER
    1   2  0.900  1.004

                       TOTAL       BONDED        FREE
      ATOM            VALENCE     VALENCE     VALENCE
    1 LI                1.004       1.004      -0.000
    2 H                 1.004       1.004      -0.000

          ---------------------
          ELECTROSTATIC MOMENTS
          ---------------------

 POINT   1           X           Y           Z (BOHR)    CHARGE
                 0.000000    0.000000    0.213622       -0.00 (A.U.)
         DX          DY          DZ         /D/  (DEBYE)
     0.000000    0.000000   -4.932168    4.932168
 ...... END OF PROPERTY EVALUATION ......
 STEP CPU TIME =     0.01 TOTAL CPU TIME =        0.0 (    0.0 MIN)
 TOTAL WALL CLOCK TIME=        0.0 SECONDS, CPU UTILIZATION IS 100.00%

     ---------------------------
     COUPLED CLUSTER CALCULATION
     ---------------------------
 CCTYP                        =CCSD(T) 
 TOTAL NUMBER OF MOS          =    20
 NUMBER OF OCCUPIED MOS       =     2
 NUMBER OF FROZEN CORE MOS    =     0
 NUMBER OF FROZEN VIRTUAL MOS =     0
 MAXIMUM CC ITERATIONS        =    30
 MAXIMUM DIIS ITERATIONS      =     5
 CONVERGENCE CRITERION FOR CC =     7
 AMPLITUDE ACCURACY THRESHOLD = 0.0E+00

     --------------------------------------------
     PARTIAL TWO ELECTRON INTEGRAL TRANSFORMATION
     --------------------------------------------

 NUMBER OF CORE MOLECULAR ORBITALS     =    0
 NUMBER OF OCCUPIED MOLECULAR ORBITALS =   20
 TOTAL NUMBER OF MOLECULAR ORBITALS    =   20
 TOTAL NUMBER OF ATOMIC ORBITALS       =   20
 THRESHOLD FOR KEEPING TRANSFORMED 2E- INTEGRALS = 1.000E-09
 AO INTEGRALS WILL BE READ IN FROM DISK...

 PLAN A: REQUIREMENTS FOR FULLY IN-MEMORY TRANSFORMATION:
 # OF WORDS AVAILABLE =              1000000
 # OF WORDS NEEDED    =               146042

 CHOOSING IN MEMORY PARTIAL TRANSFORMATION...
 TOTAL NUMBER OF TRANSFORMED 2E- INTEGRALS KEPT =         5962
 ... END OF INTEGRAL TRANSFORMATION ...
 STEP CPU TIME =     0.00 TOTAL CPU TIME =        0.0 (    0.0 MIN)
 TOTAL WALL CLOCK TIME=        0.0 SECONDS, CPU UTILIZATION IS 100.00%

   -----------------------
   COUPLED-CLUSTER PROGRAM
   -----------------------

   -------------------------------------------------------
   P.PIECUCH, S.A.KUCHARSKI, M.WLOCH, K.KOWALSKI, M.MUSIAL
   -------------------------------------------------------

 *****************************************************************
 THE FOLLOWING PAPERS SHOULD BE CITED WHEN USING COUPLED-CLUSTER
 OPTIONS:

 CCTYP = LCCD, CCD, CCSD, CCSD(T)
 P. PIECUCH, S.A. KUCHARSKI, K. KOWALSKI, AND M. MUSIAL,
 COMP. PHYS. COMMUN. 149, 71-96 (2002).

 CCTYP = R-CC, CR-CC, CCSD(TQ), CR-CC(Q)
 P. PIECUCH, S.A. KUCHARSKI, K. KOWALSKI, AND M. MUSIAL,
 COMP. PHYS. COMMUN. 149, 71-96 (2002);
 K. KOWALSKI AND P. PIECUCH, J. CHEM. PHYS. 113, 18-35 (2000);
 K. KOWALSKI AND P. PIECUCH, J. CHEM. PHYS. 113, 5644-5652 (2000).

 CCTYP = EOM-CCSD, CR-EOM
 P. PIECUCH, S.A. KUCHARSKI, K. KOWALSKI, AND M. MUSIAL,
 COMP. PHYS. COMMUN. 149, 71-96 (2002);
 K. KOWALSKI AND P. PIECUCH, J. CHEM. PHYS. 120, 1715-1738 (2004);
 M. WLOCH, J.R. GOUR, K. KOWALSKI, AND P. PIECUCH,
 J. CHEM. PHYS. 122, 214107-1 - 214107-15 (2005).

 CCTYP = CR-CCL
 P. PIECUCH, S.A. KUCHARSKI, K. KOWALSKI, AND M. MUSIAL,
 COMP. PHYS. COMMUN. 149, 71-96 (2002);
 P. PIECUCH AND M. WLOCH, J. CHEM. PHYS. 123,
 224105-1 - 224105-10 (2005).

 CCTYP = CR-EOML
 P. PIECUCH, S.A. KUCHARSKI, K. KOWALSKI, AND M. MUSIAL,
 COMP. PHYS. COMMUN. 149, 71-96 (2002);
 P. PIECUCH, J. R. GOUR, AND M. WLOCH,
 INT. J. QUANTUM CHEM. 109, 3268-3304 (2009);
 K. KOWALSKI AND P. PIECUCH,
 J. CHEM. PHYS. 120, 1715-1738 (2004).

 IN ADDITION, THE USE OF CCPRP=.TRUE. IN $CCINP AND/OR THE USE
 OF CCPRPE=.TRUE. IN $EOMINP SHOULD REFERENCE

 M. WLOCH, J.R. GOUR, K. KOWALSKI, AND P. PIECUCH,
 J. CHEM. PHYS. 122, 214107-1 - 214107-15 (2005).
 *****************************************************************


 THE FOLLOWING CALCULATIONS WILL BE PERFORMED:
                                                     CCSD   
                                                     CCSD[T]
                                                     CCSD(T)

 THE FOLLOWING ENERGY WILL BE CONSIDERED THE HIGHEST LEVEL:    CCSD(T)
 THE AVAILABLE REPLICATED MEMORY IS     1000000 WORDS.
 CONVERGENCE THRESHOLD:   1.0E-07
 MAXIMUM NUMBER OF ITERATIONS:   30

 MEMORY TO BE USED IN CC INTEGRAL SORTING IS      140808 WORDS.
 THE MINIMUM MEMORY TO ACCOMPLISH SORTING IS       47496 WORDS.
         5962 NON-ZERO TRANSFORMED 2E- INTEGRALS WERE SORTED INTO FILE 72:
            6 [IJ|KL] TYPE,          48 [AJ|KL] TYPE,
          174 [AB|IJ] TYPE,         214 [IA|BJ] TYPE,
         1672 [AB|CI] TYPE,        3848 [AB|CD] TYPE.
 TRANSFORMED INTEGRAL FILE  9 WAS READ    3 TIMES.
 ....... DONE WITH CC INTEGRAL PREPARATION .......
 STEP CPU TIME =     0.00 TOTAL CPU TIME =        0.0 (    0.0 MIN)
 TOTAL WALL CLOCK TIME=        0.0 SECONDS, CPU UTILIZATION IS 100.00%

 MEMORY REQUIRED FOR THE CCSD ITERATIONS IS       23276 WORDS.
 ITER:  1   CCSD    CORR. ENERGY:  -0.0345406947   CONV.: -8.1891E-03
 ITER:  2   CCSD    CORR. ENERGY:  -0.0361883236   CONV.: -3.4493E-03
 ITER:  3   CCSD    CORR. ENERGY:  -0.0369838192   CONV.:  4.5465E-04
 ITER:  4   CCSD    CORR. ENERGY:  -0.0370155313   CONV.: -6.5059E-03
 ITER:  5   CCSD    CORR. ENERGY:  -0.0370168271   CONV.: -6.4825E-03
 ITER:  6   CCSD    CORR. ENERGY:  -0.0370133713   CONV.: -6.5283E-03
 ITER:  7   CCSD    CORR. ENERGY:  -0.0371272638   CONV.: -4.5443E-03
 ITER:  8   CCSD    CORR. ENERGY:  -0.0373586860   CONV.: -6.2849E-04
 ITER:  9   CCSD    CORR. ENERGY:  -0.0373918322   CONV.:  4.6113E-05
 ITER: 10   CCSD    CORR. ENERGY:  -0.0373923932   CONV.: -2.4371E-05
 ITER: 11   CCSD    CORR. ENERGY:  -0.0373918598   CONV.: -9.0490E-06
 ITER: 12   CCSD    CORR. ENERGY:  -0.0373915099   CONV.: -1.4035E-06
 ITER: 13   CCSD    CORR. ENERGY:  -0.0373914640   CONV.: -2.8808E-07
 ITER: 14   CCSD    CORR. ENERGY:  -0.0373914630   CONV.: -8.0948E-08
 ITER: 15   CCSD    CORR. ENERGY:  -0.0373914662   CONV.: -8.0948E-08

     THE    CCSD     ITERATIONS HAVE CONVERGED

    MBPT(2) CORRELATION ENERGY:  -0.0285866025
    CCSD    CORRELATION ENERGY:  -0.0373914662

 T1 DIAGNOSTIC        =     0.01044235
 NORM OF THE T1 VECTOR=     0.02088471
 NORM OF THE T2 VECTOR=     0.16198000

 THE FIVE LARGEST T1 AMPLITUDES ARE:
 T1 AMPLITUDE IS -0.015987 FOR I=   2 -> A=   3
 T1 AMPLITUDE IS  0.008478 FOR I=   2 -> A=   6
 T1 AMPLITUDE IS  0.006557 FOR I=   2 -> A=  16
 T1 AMPLITUDE IS  0.005703 FOR I=   2 -> A=  17
 T1 AMPLITUDE IS  0.004516 FOR I=   2 -> A=  15

 THE FIVE LARGEST SPIN-UNIQUE T2 AMPLITUDES ARE:
 T2 AMPLITUDE IS -0.041397 FOR I,J=   2   2 -> A,B=   6   6
 T2 AMPLITUDE IS -0.037576 FOR I,J=   2   2 -> A,B=  10  10
 T2 AMPLITUDE IS -0.030477 FOR I,J=   2   2 -> A,B=   6  10
 T2 AMPLITUDE IS -0.029809 FOR I,J=   2   2 -> A,B=  11  11
 T2 AMPLITUDE IS -0.029809 FOR I,J=   2   2 -> A,B=  12  12
 PRINTED T2(I-ALPHA,J-BETA -> A-ALPHA,B-BETA) VALUES
 EQUAL   T2(J-ALPHA,I-BETA -> B-ALPHA,A-BETA) AMPLITUDES.

 ....... DONE WITH CC AMPLITUDE ITERATIONS .......
 STEP CPU TIME =     0.04 TOTAL CPU TIME =        0.1 (    0.0 MIN)
 TOTAL WALL CLOCK TIME=        0.1 SECONDS, CPU UTILIZATION IS  88.89%

 MEMORY REQUIRED FOR NONITERATIVE TRIPLES (T3WT2  ) IS        26136 WORDS.

                      SUMMARY OF RESULTS

      REFERENCE ENERGY:       -7.8120340966
        MBPT(2) ENERGY:       -7.8406206991   CORR.E=  -0.0285866025
        CCSD    ENERGY:       -7.8494255628   CORR.E=  -0.0373914662
        CCSD[T] ENERGY:       -7.8494874648   CORR.E=  -0.0374533682
        CCSD(T) ENERGY:       -7.8494853745   CORR.E=  -0.0374512779

 THE FOLLOWING METHOD AND ENERGY WILL BE CONSIDERED THE HIGHEST LEVEL RESULT:
 COUPLED-CLUSTER ENERGY E(   CCSD(T)) =       -7.8494853745

 ..... DONE WITH CC NON-ITERATIVE TRIPLES CORRECTIONS .....
 STEP CPU TIME =     0.00 TOTAL CPU TIME =        0.1 (    0.0 MIN)
 TOTAL WALL CLOCK TIME=        0.1 SECONDS, CPU UTILIZATION IS  88.89%
               580000  WORDS OF DYNAMIC MEMORY USED
 EXECUTION OF GAMESS TERMINATED NORMALLY Thu Jan 17 17:44:09 2019
 DDI: 263640 bytes (0.3 MB / 0 MWords) used by master data server.

 ----------------------------------------
 CPU timing information for all processes
 ========================================
 0: 0.67 + 0.27 = 0.95
 1: 0.01 + 0.02 = 0.04
 ----------------------------------------
 ddikick.x: exited gracefully.
unset echo
----- accounting info -----
Files used on the master node bach.ad64.riken.go.jp were:
-rw-------  1 maho  staff      258  1 17 17:44 .//LiH.631g/0.9/LiH.631g.CCSDT.0.9.gamess.F05
-rw-r--r--  1 maho  staff   180016  1 17 17:44 .//LiH.631g/0.9/LiH.631g.CCSDT.0.9.gamess.F08
-rw-r--r--  1 maho  staff   181704  1 17 17:44 .//LiH.631g/0.9/LiH.631g.CCSDT.0.9.gamess.F09
-rw-r--r--  1 maho  staff  1603280  1 17 17:44 .//LiH.631g/0.9/LiH.631g.CCSDT.0.9.gamess.F10
-rw-r--r--  1 maho  staff   388608  1 17 17:44 .//LiH.631g/0.9/LiH.631g.CCSDT.0.9.gamess.F70
-rw-r--r--  1 maho  staff   106560  1 17 17:44 .//LiH.631g/0.9/LiH.631g.CCSDT.0.9.gamess.F71
-rw-r--r--  1 maho  staff  2286144  1 17 17:44 .//LiH.631g/0.9/LiH.631g.CCSDT.0.9.gamess.F72
-rw-r--r--  1 maho  staff     1152  1 17 17:44 .//LiH.631g/0.9/LiH.631g.CCSDT.0.9.gamess.F73
-rw-r--r--  1 maho  staff    20736  1 17 17:44 .//LiH.631g/0.9/LiH.631g.CCSDT.0.9.gamess.F74
-rw-r--r--  1 maho  staff        0  1 17 17:44 .//LiH.631g/0.9/LiH.631g.CCSDT.0.9.gamess.F75
-rw-r--r--  1 maho  staff        0  1 17 17:44 .//LiH.631g/0.9/LiH.631g.CCSDT.0.9.gamess.F76
-rw-r--r--  1 maho  staff        0  1 17 17:44 .//LiH.631g/0.9/LiH.631g.CCSDT.0.9.gamess.F77
-rw-r--r--  1 maho  staff     7352  1 17 17:44 .//LiH.631g/0.9/LiH.631g.CCSDT.0.9.gamess.dat
-rw-------  1 maho  staff      258  1 17 17:44 .//LiH.631g/0.9/LiH.631g.CCSDT.0.9.gamess.inp
-rw-r--r--  1 maho  staff    34762  1 17 17:44 .//LiH.631g/0.9/LiH.631g.CCSDT.0.9.gamess.log
ls: No match.
ls: No match.
ls: No match.
2019年 1月17日 木曜日 17時44分12秒 JST
0.183u 0.137s 0:03.33 9.3%	0+0k 0+0io 0pf+0w
