----- GAMESS execution script 'rungms' -----
This job is running on host localhost
under operating system Linux at Thu Jan 17 17:50:58 JST 2019
Available scratch disk space (Kbyte units) at beginning of the job is
Filesystem     1K-blocks      Used Available Use% Mounted on
/dev/sda1      895286904 141742428 708043448  17% /
GAMESS temporary binary files will be written to .
GAMESS supplementary output files will be written to .
Copying input file N2.SV/1.7/N2.SV.fullCI.1.7.gamess.inp to your run's scratch directory...
cp N2.SV/1.7/N2.SV.fullCI.1.7.gamess.inp ./N2.SV/1.7/N2.SV.fullCI.1.7.gamess.F05
unset echo
/work/pubchem/pm6/pkg/gamess_intel/ddikick.x /work/pubchem/pm6/pkg/gamess_intel/gamess.00.x N2.SV/1.7/N2.SV.fullCI.1.7.gamess -ddi 12 12 localhost localhost localhost localhost localhost localhost localhost localhost localhost localhost localhost localhost -scr .

 Distributed Data Interface kickoff program.
 Initiating 12 compute processes on 12 nodes to run the following command:
 /work/pubchem/pm6/pkg/gamess_intel/gamess.00.x N2.SV/1.7/N2.SV.fullCI.1.7.gamess 

          ******************************************************
          *         GAMESS VERSION =  5 DEC 2014 (R1)          *
          *             FROM IOWA STATE UNIVERSITY             *
          * M.W.SCHMIDT, K.K.BALDRIDGE, J.A.BOATZ, S.T.ELBERT, *
          *   M.S.GORDON, J.H.JENSEN, S.KOSEKI, N.MATSUNAGA,   *
          *          K.A.NGUYEN, S.J.SU, T.L.WINDUS,           *
          *       TOGETHER WITH M.DUPUIS, J.A.MONTGOMERY       *
          *         J.COMPUT.CHEM.  14, 1347-1363(1993)        *
          **************** 64 BIT INTEL VERSION ****************

  SINCE 1993, STUDENTS AND POSTDOCS WORKING AT IOWA STATE UNIVERSITY
  AND ALSO IN THEIR VARIOUS JOBS AFTER LEAVING ISU HAVE MADE IMPORTANT
  CONTRIBUTIONS TO THE CODE:
     IVANA ADAMOVIC, CHRISTINE AIKENS, YURI ALEXEEV, POOJA ARORA,
     ANDREY ASADCHEV, ROB BELL, PRADIPTA BANDYOPADHYAY, JONATHAN BENTZ,
     BRETT BODE, KURT BRORSEN, CALEB CARLIN, GALINA CHABAN, WEI CHEN,
     CHEOL HO CHOI, PAUL DAY, ALBERT DEFUSCO, NUWAN DESILVA, TIM DUDLEY,
     DMITRI FEDOROV, GRAHAM FLETCHER, MARK FREITAG, KURT GLAESEMANN,
     DAN KEMP, GRANT MERRILL, NORIYUKI MINEZAWA, JONATHAN MULLIN,
     TAKESHI NAGATA, SEAN NEDD, HEATHER NETZLOFF, BOSILJKA NJEGIC, RYAN OLSON,
     MIKE PAK, SPENCER PRUITT, LUKE ROSKOP, JIM SHOEMAKER, LYUDMILA SLIPCHENKO,
     TONY SMITH, SAROM SOK, JIE SONG, TETSUYA TAKETSUGU, SIMON WEBB,
     PENG XU, SOOHAENG YOO, FEDERICO ZAHARIEV

  ADDITIONAL CODE HAS BEEN PROVIDED BY COLLABORATORS IN OTHER GROUPS:
     IOWA STATE UNIVERSITY:
          JOE IVANIC, AARON WEST, LAIMUTIS BYTAUTAS, KLAUS RUEDENBERG
     UNIVERSITY OF TOKYO: KIMIHIKO HIRAO, TAKAHITO NAKAJIMA,
          TAKAO TSUNEDA, MUNEAKI KAMIYA, SUSUMU YANAGISAWA,
          KIYOSHI YAGI, MAHITO CHIBA, SEIKEN TOKURA, NAOAKI KAWAKAMI
     UNIVERSITY OF AARHUS: FRANK JENSEN
     UNIVERSITY OF IOWA: VISVALDAS KAIRYS, HUI LI
     NATIONAL INST. OF STANDARDS AND TECHNOLOGY: WALT STEVENS, DAVID GARMER
     UNIVERSITY OF PISA: BENEDETTA MENNUCCI, JACOPO TOMASI
     UNIVERSITY OF MEMPHIS: HENRY KURTZ, PRAKASHAN KORAMBATH
     UNIVERSITY OF ALBERTA: TOBY ZENG, MARIUSZ KLOBUKOWSKI
     UNIVERSITY OF NEW ENGLAND: MARK SPACKMAN
     MIE UNIVERSITY: HIROAKI UMEDA
     NAT. INST. OF ADVANCED INDUSTRIAL SCIENCE AND TECHNOLOGY: KAZUO KITAURA
     MICHIGAN STATE UNIVERSITY:
          KAROL KOWALSKI, MARTA WLOCH, JEFFREY GOUR, JESSE LUTZ,
          WEI LI, PIOTR PIECUCH
     UNIVERSITY OF SILESIA: MONIKA MUSIAL, STANISLAW KUCHARSKI
     FACULTES UNIVERSITAIRES NOTRE-DAME DE LA PAIX:
          OLIVIER QUINET, BENOIT CHAMPAGNE
     UNIVERSITY OF CALIFORNIA - SANTA BARBARA: BERNARD KIRTMAN
     INSTITUTE FOR MOLECULAR SCIENCE:
          KAZUYA ISHIMURA, MICHIO KATOUDA, AND SHIGERU NAGASE
     UNIVERSITY OF NOTRE DAME: ANNA POMOGAEVA, DAN CHIPMAN
     KYUSHU UNIVERSITY:
          HARUYUKI NAKANO,
          FENG LONG GU, JACEK KORCHOWIEC, MARCIN MAKOWSKI, AND YURIKO AOKI,
          HIROTOSHI MORI AND EISAKU MIYOSHI
     PENNSYLVANIA STATE UNIVERSITY:
          TZVETELIN IORDANOV, CHET SWALINA, JONATHAN SKONE,
          SHARON HAMMES-SCHIFFER
     WASEDA UNIVERSITY:
          MASATO KOBAYASHI, TOMOKO AKAMA, TSUGUKI TOUMA,
          TAKESHI YOSHIKAWA, YASUHIRO IKABATA, HIROMI NAKAI
     NANJING UNIVERSITY: SHUHUA LI
     UNIVERSITY OF NEBRASKA:
          PEIFENG SU, DEJUN SI, NANDUN THELLAMUREGE, YALI WANG, HUI LI
     UNIVERSITY OF ZURICH: ROBERTO PEVERATI, KIM BALDRIDGE
     N. COPERNICUS UNIVERSITY AND JACKSON STATE UNIVERSITY:
          MARIA BARYSZ
     UNIVERSITY OF COPENHAGEN: CASPER STEINMANN
     TOKYO INSTITUTE OF TECHNOLOGY: HIROYA NAKATA
     NAGOYA UNIVERSITY: YOSHIO NISHIMOTO, STEPHAN IRLE


 PARALLEL VERSION RUNNING ON       12 PROCESSORS IN       12 NODES.

 EXECUTION OF GAMESS BEGUN Thu Jan 17 17:50:58 2019

            ECHO OF THE FIRST FEW INPUT CARDS -
 INPUT CARD> $CONTRL SCFTYP=RHF CITYP=ALDET $END                                            
 INPUT CARD> $GUESS GUESS=HUCKEL $END                                                       
 INPUT CARD> $SYSTEM MWORDS=300 $END                                                        
 INPUT CARD> $CIDET SZ=0 GROUP=C2V NCORE=2 NACT=16 NELS=10 NSTGSS=6 $END                    
 INPUT CARD> $DATA                                                                          
 INPUT CARD>N2...HF...Double-zeta basis                                                     
 INPUT CARD>Cnv   2                                                                         
 INPUT CARD>                                                                                
 INPUT CARD>N     7.0    0.0      0.0     0.0                                               
 INPUT CARD>S   7                                                                           
 INPUT CARD>  1   5909.0000000              0.0011900                                       
 INPUT CARD>  2    887.5000000              0.0090990                                       
 INPUT CARD>  3    204.7000000              0.0441450                                       
 INPUT CARD>  4     59.8400000              0.1504640                                       
 INPUT CARD>  5     20.0000000              0.3567410                                       
 INPUT CARD>  6      7.1930000              0.4465330                                       
 INPUT CARD>  7      2.6860000              0.1456030                                       
 INPUT CARD>S   2                                                                           
 INPUT CARD>  1      7.1930000             -0.1604050                                       
 INPUT CARD>  2      0.7000000              1.0582150                                       
 INPUT CARD>S   1                                                                           
 INPUT CARD>  1      0.2133000              1.0000000                                       
 INPUT CARD>P   4                                                                           
 INPUT CARD>  1     26.7900000              0.0182540                                       
 INPUT CARD>  2      5.9560000              0.1164610                                       
 INPUT CARD>  3      1.7070000              0.3901780                                       
 INPUT CARD>  4      0.5314000              0.6371020                                       
 INPUT CARD>P   1                                                                           
 INPUT CARD>  1      0.1654000              1.0000000                                       
 INPUT CARD>                                                                                
 INPUT CARD>N     7.0    0.0      0.0     1.7                                               
 INPUT CARD>S   7                                                                           
 INPUT CARD>  1   5909.0000000              0.0011900                                       
 INPUT CARD>  2    887.5000000              0.0090990                                       
 INPUT CARD>  3    204.7000000              0.0441450                                       
 INPUT CARD>  4     59.8400000              0.1504640                                       
 INPUT CARD>  5     20.0000000              0.3567410                                       
 INPUT CARD>  6      7.1930000              0.4465330                                       
 INPUT CARD>  7      2.6860000              0.1456030                                       
 INPUT CARD>S   2                                                                           
 INPUT CARD>  1      7.1930000             -0.1604050                                       
 INPUT CARD>  2      0.7000000              1.0582150                                       
 INPUT CARD>S   1                                                                           
 INPUT CARD>  1      0.2133000              1.0000000                                       
 INPUT CARD>P   4                                                                           
 INPUT CARD>  1     26.7900000              0.0182540                                       
 INPUT CARD>  2      5.9560000              0.1164610                                       
 INPUT CARD>  3      1.7070000              0.3901780                                       
 INPUT CARD>  4      0.5314000              0.6371020                                       
 INPUT CARD>P   1                                                                           
  300000000 WORDS OF MEMORY AVAILABLE


     RUN TITLE
     ---------
 N2...HF...Double-zeta basis                                                     

 THE POINT GROUP OF THE MOLECULE IS CNV     
 THE ORDER OF THE PRINCIPAL AXIS IS     2

 ATOM      ATOMIC                      COORDINATES (BOHR)
           CHARGE         X                   Y                   Z
 N           7.0     0.0000000000        0.0000000000        0.0000000000
 N           7.0     0.0000000000        0.0000000000        3.2125341791

          INTERNUCLEAR DISTANCES (ANGS.)
          ------------------------------

                1 N          2 N     

   1 N       0.0000000    1.7000000 *
   2 N       1.7000000 *  0.0000000  

  * ... LESS THAN  3.000


     ATOMIC BASIS SET
     ----------------
 THE CONTRACTED PRIMITIVE FUNCTIONS HAVE BEEN UNNORMALIZED
 THE CONTRACTED BASIS FUNCTIONS ARE NOW NORMALIZED TO UNITY

  SHELL TYPE  PRIMITIVE        EXPONENT          CONTRACTION COEFFICIENT(S)

 N         

      1   S       1          5909.0000000    0.001189999548
      1   S       2           887.5000000    0.009098996542
      1   S       3           204.7000000    0.044144983225
      1   S       4            59.8400000    0.150463942825
      1   S       5            20.0000000    0.356740864442
      1   S       6             7.1930000    0.446532830321
      1   S       7             2.6860000    0.145602944672

      2   S       8             7.1930000   -0.160405033446
      2   S       9             0.7000000    1.058215220651

      3   S      10             0.2133000    1.000000000000

      4   P      11            26.7900000    0.018253998243
      4   P      12             5.9560000    0.116460988791
      4   P      13             1.7070000    0.390177962446
      4   P      14             0.5314000    0.637101938680

      5   P      15             0.1654000    1.000000000000

 N         

      6   S      16          5909.0000000    0.001189999548
      6   S      17           887.5000000    0.009098996542
      6   S      18           204.7000000    0.044144983225
      6   S      19            59.8400000    0.150463942825
      6   S      20            20.0000000    0.356740864442
      6   S      21             7.1930000    0.446532830321
      6   S      22             2.6860000    0.145602944672

      7   S      23             7.1930000   -0.160405033446
      7   S      24             0.7000000    1.058215220651

      8   S      25             0.2133000    1.000000000000

      9   P      26            26.7900000    0.018253998243
      9   P      27             5.9560000    0.116460988791
      9   P      28             1.7070000    0.390177962446
      9   P      29             0.5314000    0.637101938680

     10   P      30             0.1654000    1.000000000000

 TOTAL NUMBER OF BASIS SET SHELLS             =   10
 NUMBER OF CARTESIAN GAUSSIAN BASIS FUNCTIONS =   18
 NUMBER OF ELECTRONS                          =   14
 CHARGE OF MOLECULE                           =    0
 SPIN MULTIPLICITY                            =    1
 NUMBER OF OCCUPIED ORBITALS (ALPHA)          =    7
 NUMBER OF OCCUPIED ORBITALS (BETA )          =    7
 TOTAL NUMBER OF ATOMS                        =    2
 THE NUCLEAR REPULSION ENERGY IS       15.2527560075

 THIS MOLECULE IS RECOGNIZED AS BEING LINEAR,
 ORBITAL LZ DEGENERACY TOLERANCE ETOLLZ= 1.00E-06

     $CONTRL OPTIONS
     ---------------
 SCFTYP=RHF          RUNTYP=ENERGY       EXETYP=RUN     
 MPLEVL=       0     CITYP =ALDET        CCTYP =NONE         VBTYP =NONE    
 DFTTYP=NONE         TDDFT =NONE    
 MULT  =       1     ICHARG=       0     NZVAR =       0     COORD =UNIQUE  
 PP    =NONE         RELWFN=NONE         LOCAL =NONE         NUMGRD=       F
 ISPHER=      -1     NOSYM =       0     MAXIT =      30     UNITS =ANGS    
 PLTORB=       F     MOLPLT=       F     AIMPAC=       F     FRIEND=        
 NPRINT=       7     IREST =       0     GEOM  =INPUT   
 NORMF =       0     NORMP =       0     ITOL  =      20     ICUT  =       9
 INTTYP=BEST         GRDTYP=BEST         QMTTOL= 1.0E-06

     $SYSTEM OPTIONS
     ---------------
  REPLICATED MEMORY=   300000000 WORDS (ON EVERY NODE).
 DISTRIBUTED MEMDDI=           0 MILLION WORDS IN AGGREGATE,
 MEMDDI DISTRIBUTED OVER  12 PROCESSORS IS           0 WORDS/PROCESSOR.
 TOTAL MEMORY REQUESTED ON EACH PROCESSOR=   300000000 WORDS.
 TIMLIM=      525600.00 MINUTES, OR     365.0 DAYS.
 PARALL= T  BALTYP=  DLB     KDIAG=    0  COREFL= F
 MXSEQ2=     300 MXSEQ3=     150  mem10=         0

          ----------------
          PROPERTIES INPUT
          ----------------

     MOMENTS            FIELD           POTENTIAL          DENSITY
 IEMOM =       1   IEFLD =       0   IEPOT =       0   IEDEN =       0
 WHERE =COMASS     WHERE =NUCLEI     WHERE =NUCLEI     WHERE =NUCLEI  
 OUTPUT=BOTH       OUTPUT=BOTH       OUTPUT=BOTH       OUTPUT=BOTH    
 IEMINT=       0   IEFINT=       0                     IEDINT=       0
                                                       MORB  =       0
          EXTRAPOLATION IN EFFECT
          SOSCF IN EFFECT
 ORBITAL PRINTING OPTION: NPREO=     1    18     2     1

     -------------------------------
     INTEGRAL TRANSFORMATION OPTIONS
     -------------------------------
     NWORD  =            0
     CUTOFF = 1.0E-09     MPTRAN =       0
     DIRTRF =       F     AOINTS =DUP     

          ----------------------
          INTEGRAL INPUT OPTIONS
          ----------------------
 NOPK  =       1 NORDER=       0 SCHWRZ=       F

     ------------------------------------------
     THE POINT GROUP IS CNV, NAXIS= 2, ORDER= 4
     ------------------------------------------

     DIMENSIONS OF THE SYMMETRY SUBSPACES ARE
 A1  =   10     A2  =    0     B1  =    4     B2  =    4

 ..... DONE SETTING UP THE RUN .....
 CPU     0: STEP CPU TIME=     0.02 TOTAL CPU TIME=        0.0 (    0.0 MIN)
 TOTAL WALL CLOCK TIME=        0.0 SECONDS, CPU UTILIZATION IS  66.67%

          ********************
          1 ELECTRON INTEGRALS
          ********************
 ...... END OF ONE-ELECTRON INTEGRALS ......
 CPU     0: STEP CPU TIME=     0.00 TOTAL CPU TIME=        0.0 (    0.0 MIN)
 TOTAL WALL CLOCK TIME=        0.1 SECONDS, CPU UTILIZATION IS  33.33%

          -------------
          GUESS OPTIONS
          -------------
          GUESS =HUCKEL            NORB  =       0          NORDER=       0
          MIX   =       F          PRTMO =       F          PUNMO =       F
          TOLZ  = 1.0E-08          TOLE  = 1.0E-05
          SYMDEN=       F          PURIFY=       F

 INITIAL GUESS ORBITALS GENERATED BY HUCKEL   ROUTINE.
 HUCKEL GUESS REQUIRES      4352 WORDS.

 SYMMETRIES FOR INITIAL GUESS ORBITALS FOLLOW.   BOTH SET(S).
     7 ORBITALS ARE OCCUPIED (    2 CORE ORBITALS).
     3=A1       4=A1       5=A1       6=B1       7=B2       8=B1       9=B2  
    10=A1      11=A1      12=A1      13=A1      14=A1      15=B1      16=B1  
    17=B2  
 ...... END OF INITIAL ORBITAL SELECTION ......
 CPU     0: STEP CPU TIME=     0.00 TOTAL CPU TIME=        0.0 (    0.0 MIN)
 TOTAL WALL CLOCK TIME=        0.1 SECONDS, CPU UTILIZATION IS  28.57%

                    ----------------------
                    AO INTEGRAL TECHNOLOGY
                    ----------------------
     S,P,L SHELL ROTATED AXIS INTEGRALS, REPROGRAMMED BY
        KAZUYA ISHIMURA (IMS) AND JOSE SIERRA (SYNSTAR).
     S,P,D,L SHELL ROTATED AXIS INTEGRALS PROGRAMMED BY
        KAZUYA ISHIMURA (INSTITUTE FOR MOLECULAR SCIENCE).
     S,P,D,F,G SHELL TO TOTAL QUARTET ANGULAR MOMENTUM SUM 5,
        ERIC PROGRAM BY GRAHAM FLETCHER (ELORET AND NASA ADVANCED
        SUPERCOMPUTING DIVISION, AMES RESEARCH CENTER).
     S,P,D,F,G,L SHELL GENERAL RYS QUADRATURE PROGRAMMED BY
        MICHEL DUPUIS (PACIFIC NORTHWEST NATIONAL LABORATORY).

          --------------------
          2 ELECTRON INTEGRALS
          --------------------

 THE -PK- OPTION IS OFF, THE INTEGRALS ARE NOT IN SUPERMATRIX FORM.
 STORING   15000 INTEGRALS/RECORD ON DISK, USING 12 BYTES/INTEGRAL.
 TWO ELECTRON INTEGRAL EVALUATION REQUIRES   89411 WORDS OF MEMORY.
 II,JST,KST,LST =  1  1  1  1 NREC =         1 INTLOC =    1
 II,JST,KST,LST =  2  1  1  1 NREC =         1 INTLOC =    2
 II,JST,KST,LST =  3  1  1  1 NREC =         1 INTLOC =    7
 II,JST,KST,LST =  4  1  1  1 NREC =         1 INTLOC =   12
 II,JST,KST,LST =  5  1  1  1 NREC =         1 INTLOC =   57
 II,JST,KST,LST =  6  1  1  1 NREC =         1 INTLOC =   57
 II,JST,KST,LST =  7  1  1  1 NREC =         1 INTLOC =   57
 II,JST,KST,LST =  8  1  1  1 NREC =         1 INTLOC =  146
 II,JST,KST,LST =  9  1  1  1 NREC =         1 INTLOC =  235
 II,JST,KST,LST = 10  1  1  1 NREC =         1 INTLOC =  467
 TOTAL NUMBER OF NONZERO TWO-ELECTRON INTEGRALS =                4334
         12 INTEGRAL RECORDS WERE STORED ON DISK FILE  8.
  ...... END OF TWO-ELECTRON INTEGRALS .....
 CPU     0: STEP CPU TIME=     0.02 TOTAL CPU TIME=        0.0 (    0.0 MIN)
 TOTAL WALL CLOCK TIME=        0.1 SECONDS, CPU UTILIZATION IS  44.44%

          --------------------------
                 RHF SCF CALCULATION
          --------------------------

     NUCLEAR ENERGY =        15.2527560075
     MAXIT =   30     NPUNCH=    2
     EXTRAP=T  DAMP=F  SHIFT=F  RSTRCT=F  DIIS=F  DEM=F  SOSCF=T
     DENSITY MATRIX CONV=  1.00E-06
     SOSCF WILL OPTIMIZE      77 ORBITAL ROTATIONS, SOGTOL=   0.250
     MEMORY REQUIRED FOR RHF ITERS=     32828 WORDS.

 ITER EX DEM     TOTAL ENERGY        E CHANGE  DENSITY CHANGE     ORB. GRAD
   1  0  0     -108.2700744010  -108.2700744010   0.191691515   0.000000000
          ---------------START SECOND ORDER SCF---------------
   2  1  0     -108.4955739170    -0.2254995160   0.085928239   0.066236001
   3  2  0     -108.5103880333    -0.0148141163   0.015618072   0.015239226
   4  3  0     -108.5116526723    -0.0012646391   0.002154095   0.001448462
   5  4  0     -108.5116599531    -0.0000072808   0.000560302   0.000386643
   6  5  0     -108.5116604224    -0.0000004693   0.000063533   0.000031665
   7  6  0     -108.5116604277    -0.0000000052   0.000022038   0.000007187
   8  7  0     -108.5116604279    -0.0000000002   0.000000700   0.000000461
   9  8  0     -108.5116604279    -0.0000000000   0.000000103   0.000000066

          -----------------
          DENSITY CONVERGED
          -----------------
     TIME TO FORM FOCK OPERATORS=       0.0 SECONDS (       0.0 SEC/ITER)
     TIME TO SOLVE SCF EQUATIONS=       0.0 SECONDS (       0.0 SEC/ITER)

 FINAL RHF ENERGY IS     -108.5116604279 AFTER   9 ITERATIONS

 LZ VALUE ANALYSIS FOR THE MOS
 ----------------------------------------
 MO     1 (    1) HAS LZ(WEIGHT)= 0.00(100.0%) 
 MO     2 (    2) HAS LZ(WEIGHT)= 0.00(100.0%) 
 MO     3 (    3) HAS LZ(WEIGHT)= 0.00(100.0%) 
 MO     4 (    4) HAS LZ(WEIGHT)= 0.00(100.0%) 
 MO     5 (    5) HAS LZ(WEIGHT)= 0.00(100.0%) 
 MO     6 (    6) HAS LZ(WEIGHT)=-1.00( 50.0%)  1.00( 50.0%) 
 MO     7 (    6) HAS LZ(WEIGHT)=-1.00( 50.0%)  1.00( 50.0%) 
 MO     8 (    7) HAS LZ(WEIGHT)=-1.00( 50.0%)  1.00( 50.0%) 
 MO     9 (    7) HAS LZ(WEIGHT)=-1.00( 50.0%)  1.00( 50.0%) 
 MO    10 (    8) HAS LZ(WEIGHT)= 0.00(100.0%) 
 MO    11 (    9) HAS LZ(WEIGHT)= 0.00(100.0%) 
 MO    12 (   10) HAS LZ(WEIGHT)=-1.00( 50.0%)  1.00( 50.0%) 
 MO    13 (   10) HAS LZ(WEIGHT)=-1.00( 50.0%)  1.00( 50.0%) 
 MO    14 (   11) HAS LZ(WEIGHT)=-1.00( 50.0%)  1.00( 50.0%) 
 MO    15 (   11) HAS LZ(WEIGHT)=-1.00( 50.0%)  1.00( 50.0%) 
 MO    16 (   12) HAS LZ(WEIGHT)= 0.00(100.0%) 
 MO    17 (   13) HAS LZ(WEIGHT)= 0.00(100.0%) 
 MO    18 (   14) HAS LZ(WEIGHT)= 0.00(100.0%) 

          ------------
          EIGENVECTORS
          ------------

                      1          2          3          4          5
                  -15.8248   -15.8242    -1.1877    -0.9387    -0.5414
                     A1         A1         A1         A1         A1  
    1  N  1  S    0.706927   0.706975  -0.163180   0.175114  -0.043982
    2  N  1  S    0.000015  -0.000254   0.373493  -0.418611   0.110181
    3  N  1  S    0.000972   0.001247   0.302978  -0.397182   0.161440
    4  N  1  X    0.000000   0.000000   0.000000   0.000000   0.000000
    5  N  1  Y    0.000000   0.000000   0.000000   0.000000   0.000000
    6  N  1  Z    0.000984   0.000715   0.104580   0.099800  -0.519691
    7  N  1  X    0.000000   0.000000   0.000000   0.000000   0.000000
    8  N  1  Y    0.000000   0.000000   0.000000   0.000000   0.000000
    9  N  1  Z   -0.000395  -0.000038   0.020663   0.013910  -0.191689
   10  N  2  S    0.706927  -0.706975  -0.163180  -0.175114  -0.043982
   11  N  2  S    0.000015   0.000254   0.373493   0.418611   0.110181
   12  N  2  S    0.000972  -0.001247   0.302978   0.397182   0.161440
   13  N  2  X    0.000000   0.000000   0.000000   0.000000   0.000000
   14  N  2  Y    0.000000   0.000000   0.000000   0.000000   0.000000
   15  N  2  Z   -0.000984   0.000715  -0.104580   0.099800   0.519691
   16  N  2  X    0.000000   0.000000   0.000000   0.000000   0.000000
   17  N  2  Y    0.000000   0.000000   0.000000   0.000000   0.000000
   18  N  2  Z    0.000395  -0.000038  -0.020663   0.013910   0.191689

                      6          7          8          9         10
                   -0.4593    -0.4593    -0.0571    -0.0571     0.1226
                     B2         B1         B2         B1         A1  
    1  N  1  S    0.000000   0.000000   0.000000   0.000000  -0.071954
    2  N  1  S    0.000000   0.000000   0.000000   0.000000   0.154319
    3  N  1  S    0.000000   0.000000   0.000000   0.000000   0.519962
    4  N  1  X    0.000000   0.484039   0.000000   0.529666   0.000000
    5  N  1  Y    0.484039   0.000000   0.529666   0.000000   0.000000
    6  N  1  Z    0.000000   0.000000   0.000000   0.000000   0.550131
    7  N  1  X    0.000000   0.256148   0.000000   0.366067   0.000000
    8  N  1  Y    0.256148   0.000000   0.366067   0.000000   0.000000
    9  N  1  Z    0.000000   0.000000   0.000000   0.000000   0.658952
   10  N  2  S    0.000000   0.000000   0.000000   0.000000   0.071954
   11  N  2  S    0.000000   0.000000   0.000000   0.000000  -0.154319
   12  N  2  S    0.000000   0.000000   0.000000   0.000000  -0.519962
   13  N  2  X    0.000000   0.484039   0.000000  -0.529666   0.000000
   14  N  2  Y    0.484039   0.000000  -0.529666   0.000000   0.000000
   15  N  2  Z    0.000000   0.000000   0.000000   0.000000   0.550131
   16  N  2  X    0.000000   0.256148   0.000000  -0.366067   0.000000
   17  N  2  Y    0.256148   0.000000  -0.366067   0.000000   0.000000
   18  N  2  Z    0.000000   0.000000   0.000000   0.000000   0.658952

                     11         12         13         14         15
                    0.5826     0.6312     0.6312     0.7080     0.7080
                     A1         B2         B1         B2         B1  
    1  N  1  S   -0.032755   0.000000   0.000000   0.000000   0.000000
    2  N  1  S    0.057677   0.000000   0.000000   0.000000   0.000000
    3  N  1  S    0.679166   0.000000   0.000000   0.000000   0.000000
    4  N  1  X    0.000000   0.000000   0.677067   0.000000  -0.656131
    5  N  1  Y    0.000000   0.677067   0.000000  -0.656131   0.000000
    6  N  1  Z   -0.631036   0.000000   0.000000   0.000000   0.000000
    7  N  1  X    0.000000   0.000000  -0.659904   0.000000   1.032292
    8  N  1  Y    0.000000  -0.659904   0.000000   1.032292   0.000000
    9  N  1  Z    1.279994   0.000000   0.000000   0.000000   0.000000
   10  N  2  S    0.032755   0.000000   0.000000   0.000000   0.000000
   11  N  2  S   -0.057677   0.000000   0.000000   0.000000   0.000000
   12  N  2  S   -0.679166   0.000000   0.000000   0.000000   0.000000
   13  N  2  X    0.000000   0.000000   0.677067   0.000000   0.656131
   14  N  2  Y    0.000000   0.677067   0.000000   0.656131   0.000000
   15  N  2  Z   -0.631036   0.000000   0.000000   0.000000   0.000000
   16  N  2  X    0.000000   0.000000  -0.659904   0.000000  -1.032292
   17  N  2  Y    0.000000  -0.659904   0.000000  -1.032292   0.000000
   18  N  2  Z    1.279994   0.000000   0.000000   0.000000   0.000000

                     16         17         18
                    0.7207     0.9551     1.3263
                     A1         A1         A1  
    1  N  1  S    0.030768  -0.092777   0.047249
    2  N  1  S   -0.307876   1.090425  -1.373486
    3  N  1  S    0.521172  -0.875699   2.472025
    4  N  1  X    0.000000   0.000000   0.000000
    5  N  1  Y    0.000000   0.000000   0.000000
    6  N  1  Z    0.613280   0.254891  -0.008805
    7  N  1  X    0.000000   0.000000   0.000000
    8  N  1  Y    0.000000   0.000000   0.000000
    9  N  1  Z   -0.815130  -0.244999   1.115829
   10  N  2  S    0.030768  -0.092777  -0.047249
   11  N  2  S   -0.307876   1.090425   1.373486
   12  N  2  S    0.521172  -0.875699  -2.472025
   13  N  2  X    0.000000   0.000000   0.000000
   14  N  2  Y    0.000000   0.000000   0.000000
   15  N  2  Z   -0.613280  -0.254891  -0.008805
   16  N  2  X    0.000000   0.000000   0.000000
   17  N  2  Y    0.000000   0.000000   0.000000
   18  N  2  Z    0.815130   0.244999   1.115829
 ...... END OF RHF CALCULATION ......
 CPU     0: STEP CPU TIME=     0.00 TOTAL CPU TIME=        0.0 (    0.0 MIN)
 TOTAL WALL CLOCK TIME=        0.1 SECONDS, CPU UTILIZATION IS  40.00%

     ----------------------------------------------------------------
     PROPERTY VALUES FOR THE RHF   SELF-CONSISTENT FIELD WAVEFUNCTION
     ----------------------------------------------------------------

          -----------------
          ENERGY COMPONENTS
          -----------------

         WAVEFUNCTION NORMALIZATION =       1.0000000000

                ONE ELECTRON ENERGY =    -177.0581317211
                TWO ELECTRON ENERGY =      53.2937152857
           NUCLEAR REPULSION ENERGY =      15.2527560075
                                      ------------------
                       TOTAL ENERGY =    -108.5116604279

 ELECTRON-ELECTRON POTENTIAL ENERGY =      53.2937152857
  NUCLEUS-ELECTRON POTENTIAL ENERGY =    -284.3644723439
   NUCLEUS-NUCLEUS POTENTIAL ENERGY =      15.2527560075
                                      ------------------
             TOTAL POTENTIAL ENERGY =    -215.8180010507
               TOTAL KINETIC ENERGY =     107.3063406228
                 VIRIAL RATIO (V/T) =       2.0112325124

  ...... PI ENERGY ANALYSIS ......

 ENERGY ANALYSIS:
            FOCK ENERGY=    -70.4707010274
          BARE H ENERGY=   -177.0581317211
     ELECTRONIC ENERGY =   -123.7644163743
         KINETIC ENERGY=    107.3063406228
          N-N REPULSION=     15.2527560075
           TOTAL ENERGY=   -108.5116603668
        SIGMA PART(1+2)=   -109.5926714665
               (K,V1,2)=    101.3677173582   -251.9193673079     40.9589784832
           PI PART(1+2)=    -14.1717449078
               (K,V1,2)=      5.9386232646    -32.4451050360     12.3347368637
  SIGMA SKELETON, ERROR=    -94.3399154590      0.0000000000
             MIXED PART= 0.00000E+00 0.00000E+00 0.00000E+00 0.00000E+00
 ...... END OF PI ENERGY ANALYSIS ......

          ---------------------------------------
          MULLIKEN AND LOWDIN POPULATION ANALYSES
          ---------------------------------------

               ----- POPULATIONS IN EACH AO -----
                             MULLIKEN      LOWDIN
              1  N  1  S      2.00007     1.99613
              2  N  1  S      1.03800     0.99634
              3  N  1  S      0.91495     0.85405
              4  N  1  X      0.64811     0.60042
              5  N  1  Y      0.64811     0.60042
              6  N  1  Z      0.82149     0.75625
              7  N  1  X      0.35189     0.39958
              8  N  1  Y      0.35189     0.39958
              9  N  1  Z      0.22549     0.39723
             10  N  2  S      2.00007     1.99613
             11  N  2  S      1.03800     0.99634
             12  N  2  S      0.91495     0.85405
             13  N  2  X      0.64811     0.60042
             14  N  2  Y      0.64811     0.60042
             15  N  2  Z      0.82149     0.75625
             16  N  2  X      0.35189     0.39958
             17  N  2  Y      0.35189     0.39958
             18  N  2  Z      0.22549     0.39723

          ----- MULLIKEN ATOMIC OVERLAP POPULATIONS -----
          (OFF-DIAGONAL ELEMENTS NEED TO BE MULTIPLIED BY 2)

             1           2

    1    6.6254044
    2    0.3745956   6.6254044

          TOTAL MULLIKEN AND LOWDIN ATOMIC POPULATIONS
       ATOM         MULL.POP.    CHARGE          LOW.POP.     CHARGE
    1 N             7.000000    0.000000         7.000000    0.000000
    2 N             7.000000   -0.000000         7.000000    0.000000

          ---------------------
          ELECTROSTATIC MOMENTS
          ---------------------

 POINT   1           X           Y           Z (BOHR)    CHARGE
                 0.000000    0.000000    1.606267       -0.00 (A.U.)
         DX          DY          DZ         /D/  (DEBYE)
     0.000000    0.000000   -0.000000    0.000000
 ...... END OF PROPERTY EVALUATION ......
 CPU     0: STEP CPU TIME=     0.00 TOTAL CPU TIME=        0.0 (    0.0 MIN)
 TOTAL WALL CLOCK TIME=        0.1 SECONDS, CPU UTILIZATION IS  28.57%

 DETERMINANT CI OPTIONS   NRNFG   NPFLG
 INTEGRAL TRANSFORMATION    1       0
 DIAGONALIZE HAMILTONIAN    1       0
 FORM 1E- DENSITY MATRIX    1       0
 FORM 2E- DENSITY MATRIX    0       0

     --------------------------------------------------
          AMES LABORATORY DETERMINANTAL FULL CI
     PROGRAM WRITTEN BY JOE IVANIC AND KLAUS RUEDENBERG
     --------------------------------------------------

 THE POINT GROUP                  =   C2V     
 THE STATE SYMMETRY               =   A1      
 NUMBER OF CORE ORBITALS          =    2
 NUMBER OF ACTIVE ORBITALS        =   16
 NUMBER OF ALPHA ELECTRONS        =    7 (   5 ACTIVE)
 NUMBER OF BETA ELECTRONS         =    7 (   5 ACTIVE)
 NUMBER OF OCCUPIED ORBITALS      =   18
 NUMBER OF CI STATES REQUESTED    =    1
 NUMBER OF CI STARTING VECTORS    =    6
 MAX. NO. OF CI EXPANSION VECTORS =   12
 SIZE OF INITIAL CI GUESS MATRIX  =  300
 MAX. NO. OF CI ITERS/STATE       =  100
 CI DIAGONALIZATION CRITERION     = 1.00E-06
 CI PROPERTIES WILL BE FOUND FOR ROOT NUMBER   1
 1E- DENSITY MATRIX OPTIONS ARE 1

 CORRELATION ENERGY ANALYSIS      =    F

 SYMMETRIES FOR THE   2 CORE,  16 ACTIVE ARE

     CORE= A1    A1  

   ACTIVE= A1    A1    A1    B2    B1    B2    B1    A1    A1    B2  
           B1    B2    B1    A1    A1    A1  

     --------------------------------------------
     PARTIAL TWO ELECTRON INTEGRAL TRANSFORMATION
     --------------------------------------------

 NUMBER OF CORE MOLECULAR ORBITALS     =    2
 NUMBER OF OCCUPIED MOLECULAR ORBITALS =   18
 TOTAL NUMBER OF MOLECULAR ORBITALS    =   18
 TOTAL NUMBER OF ATOMIC ORBITALS       =   18
 THRESHOLD FOR KEEPING TRANSFORMED 2E- INTEGRALS = 1.000E-09

 -------------------------------     ------------------------------
 DISTRIBUTED DATA TRANSFORMATION     PROGRAM WRITTEN BY G. FLETCHER
 -------------------------------     ------------------------------

 THE DISTRIBUTED MEMORY REQUIRED FOR THIS STEP IS MEMDDI=         1 MWORDS
 CREATING DISTRIBUTED STORAGE FOR [OCC OCC|OCC OCC] INTEGRALS
 DDI: Creating Array [0] - 171 x 171 = 29241 words.
 CREATING WORKSPACE OF SIZE VVOO
 DDI: Creating Array [1] - 171 x 171 = 29241 words.
 FOR   12 PROCESSORS, THE REPLICATED MEMORY NEEDED IS       58507 WORDS.

      DIRECT 4-INDEX TRANSFORMATION 
      SCHWARZ INEQUALITY TEST SKIPPED          0 INTEGRAL BLOCKS
 ----- FROZEN CORE ENERGY =       -96.9351081855
 ... END OF INTEGRAL TRANSFORMATION ...
 CPU     0: STEP CPU TIME=     0.01 TOTAL CPU TIME=        0.0 (    0.0 MIN)
 TOTAL WALL CLOCK TIME=        0.2 SECONDS, CPU UTILIZATION IS  27.78%

     --------------------------------------------------
          AMES LABORATORY DETERMINANTAL FULL CI
     PROGRAM WRITTEN BY JOE IVANIC AND KLAUS RUEDENBERG
     --------------------------------------------------

 THE NUMBER OF DETERMINANTS HAVING SPACE SYMMETRY A1 
 IN POINT GROUP C2V  WITH SZ=  0.0 IS        4777056
 THE DETERMINANT FULL CI REQUIRES       119865995 WORDS
 INITIAL CI VECTOR GUESS TIME  :          1.2
 INITIAL FULL CI ITERATION TIME:          5.6

 ITERATION      ENERGY           GRADIENT
     0     -108.7965640224     0.52579628
     1     -108.9130313689     0.22777605
     2     -108.9262512951     0.12736202
     3     -108.9299294898     0.06614682
     4     -108.9310303771     0.04099706
     5     -108.9314813717     0.02671148
     6     -108.9316679737     0.01588962
     7     -108.9317190964     0.00926594
     8     -108.9317458229     0.00625001
     9     -108.9317558777     0.00407922
    10     -108.9317598381     0.00241552
    11     -108.9317611593     0.00135415
    12     -108.9317617379     0.00069424
    13     -108.9317618499     0.00038185
    14     -108.9317619028     0.00027730
    15     -108.9317619307     0.00022528
    16     -108.9317619432     0.00014231
    17     -108.9317619483     0.00008126
    18     -108.9317619500     0.00005217
    19     -108.9317619505     0.00003125
    20     -108.9317619508     0.00002264
    21     -108.9317619510     0.00001627
    22     -108.9317619510     0.00000944
    23     -108.9317619511     0.00000559
    24     -108.9317619511     0.00000431
    25     -108.9317619511     0.00000248
    26     -108.9317619511     0.00000192
    27     -108.9317619511     0.00000143
    28     -108.9317619511     0.00000082

 CONVERGED STATE    1 ENERGY=     -108.9317619511 IN   28 ITERS

 ALL STATES CONVERGED.

 CI EIGENVECTORS WILL BE LABELED IN GROUP=C2V     
 PRINTING CI COEFFICIENTS LARGER THAN  0.050000

 STATE   1  ENERGY=      -108.9317619511  S=  0.00  SZ=  0.00  SPACE SYM=A1  

      ALPHA       |      BETA        | COEFFICIENT
------------------|------------------|------------
 1111100000000000 | 1111100000000000 |   0.7819967
 1110110000000000 | 1110110000000000 |  -0.2735241
 1111001000000000 | 1111001000000000 |  -0.2735241
 1110101000000000 | 1111010000000000 |   0.1377524
 1111010000000000 | 1110101000000000 |   0.1377524
 1110011000000000 | 1110011000000000 |   0.1354746
 1111001000000000 | 1110110000000000 |   0.1214183
 1110110000000000 | 1111001000000000 |   0.1214183
 1101100100000000 | 1101100100000000 |  -0.0975525
 1101100100000000 | 1111001000000000 |  -0.0705229
 1111001000000000 | 1101100100000000 |  -0.0705229
 1110110000000000 | 1101100100000000 |   0.0705229
 1101100100000000 | 1110110000000000 |   0.0705229
 1100110100000000 | 1100110100000000 |   0.0529904
 1101001100000000 | 1101001100000000 |   0.0529904
 ..... DONE WITH DETERMINANT CI COMPUTATION .....
 CPU     0: STEP CPU TIME=    79.17 TOTAL CPU TIME=       79.2 (    1.3 MIN)
 TOTAL WALL CLOCK TIME=       99.9 SECONDS, CPU UTILIZATION IS  79.28%

     ---------------------------
     ONE PARTICLE DENSITY MATRIX
     ---------------------------

 DENSITY MATRIX WILL BE SAVED FOR   1-TH STATE WITH S= 0.00

 CI EIGENSTATE   1 TOTAL ENERGY =     -108.9317619511

          NATURAL ORBITALS IN ATOMIC ORBITAL BASIS
          ----------------------------------------

                      1          2          3          4          5
                    2.0000     2.0000     1.9832     1.9716     1.8629
                     A1         A1         A1         A1         A1  
    1  N  1  S    0.706927  -0.706975  -0.167374   0.175220   0.001942
    2  N  1  S    0.000015   0.000254   0.371012  -0.407938  -0.010329
    3  N  1  S    0.000972  -0.001247   0.352335  -0.413921   0.091938
    4  N  1  X    0.000000   0.000000   0.000000   0.000000   0.000000
    5  N  1  Y    0.000000   0.000000   0.000000   0.000000   0.000000
    6  N  1  Z    0.000984  -0.000715  -0.031825   0.077379  -0.531872
    7  N  1  X    0.000000   0.000000   0.000000   0.000000   0.000000
    8  N  1  Y    0.000000   0.000000   0.000000   0.000000   0.000000
    9  N  1  Z   -0.000395   0.000038  -0.036015   0.018691  -0.187926
   10  N  2  S    0.706927   0.706975  -0.167374  -0.175220   0.001942
   11  N  2  S    0.000015  -0.000254   0.371012   0.407938  -0.010329
   12  N  2  S    0.000972   0.001247   0.352335   0.413921   0.091938
   13  N  2  X    0.000000   0.000000   0.000000   0.000000   0.000000
   14  N  2  Y    0.000000   0.000000   0.000000   0.000000   0.000000
   15  N  2  Z   -0.000984  -0.000715   0.031825   0.077379   0.531872
   16  N  2  X    0.000000   0.000000   0.000000   0.000000   0.000000
   17  N  2  Y    0.000000   0.000000   0.000000   0.000000   0.000000
   18  N  2  Z    0.000395   0.000038   0.036015   0.018691   0.187926

                      6          7          8          9         10
                    1.6410     1.6410     0.3552     0.3552     0.1360
                     B1         B2         B2         B1         A1  
    1  N  1  S    0.000000   0.000000   0.000000   0.000000  -0.052457
    2  N  1  S    0.000000   0.000000   0.000000   0.000000   0.132580
    3  N  1  S    0.000000   0.000000   0.000000   0.000000   0.207732
    4  N  1  X    0.513226   0.000000   0.000000   0.631744   0.000000
    5  N  1  Y    0.000000   0.513226   0.631744   0.000000   0.000000
    6  N  1  Z    0.000000   0.000000   0.000000   0.000000   0.738302
    7  N  1  X    0.227003   0.000000   0.000000   0.188645   0.000000
    8  N  1  Y    0.000000   0.227003   0.188645   0.000000   0.000000
    9  N  1  Z    0.000000   0.000000   0.000000   0.000000   0.155187
   10  N  2  S    0.000000   0.000000   0.000000   0.000000   0.052457
   11  N  2  S    0.000000   0.000000   0.000000   0.000000  -0.132580
   12  N  2  S    0.000000   0.000000   0.000000   0.000000  -0.207732
   13  N  2  X    0.513226   0.000000   0.000000  -0.631744   0.000000
   14  N  2  Y    0.000000   0.513226  -0.631744   0.000000   0.000000
   15  N  2  Z    0.000000   0.000000   0.000000   0.000000   0.738302
   16  N  2  X    0.227003   0.000000   0.000000  -0.188645   0.000000
   17  N  2  Y    0.000000   0.227003  -0.188645   0.000000   0.000000
   18  N  2  Z    0.000000   0.000000   0.000000   0.000000   0.155187

                     11         12         13         14         15
                    0.0129     0.0092     0.0092     0.0089     0.0055
                     A1         B2         B1         A1         A1  
    1  N  1  S   -0.094327   0.000000   0.000000   0.075439  -0.034654
    2  N  1  S    1.046855   0.000000   0.000000  -0.986327   0.449210
    3  N  1  S   -1.000981   0.000000   0.000000   0.995776  -0.147550
    4  N  1  X    0.000000   0.000000  -0.655219   0.000000   0.000000
    5  N  1  Y    0.000000  -0.655219   0.000000   0.000000   0.000000
    6  N  1  Z   -0.197352   0.000000   0.000000   0.303187   0.631861
    7  N  1  X    0.000000   0.000000   0.670489   0.000000   0.000000
    8  N  1  Y    0.000000   0.670489   0.000000   0.000000   0.000000
    9  N  1  Z    0.321045   0.000000   0.000000  -0.348352  -0.788638
   10  N  2  S   -0.094327   0.000000   0.000000  -0.075439  -0.034654
   11  N  2  S    1.046855   0.000000   0.000000   0.986327   0.449210
   12  N  2  S   -1.000981   0.000000   0.000000  -0.995776  -0.147550
   13  N  2  X    0.000000   0.000000  -0.655219   0.000000   0.000000
   14  N  2  Y    0.000000  -0.655219   0.000000   0.000000   0.000000
   15  N  2  Z    0.197352   0.000000   0.000000   0.303187  -0.631861
   16  N  2  X    0.000000   0.000000   0.670489   0.000000   0.000000
   17  N  2  Y    0.000000   0.670489   0.000000   0.000000   0.000000
   18  N  2  Z   -0.321045   0.000000   0.000000  -0.348352   0.788638

                     16         17         18
                    0.0033     0.0033     0.0013
                     B2         B1         A1  
    1  N  1  S    0.000000   0.000000   0.001706
    2  N  1  S    0.000000   0.000000   0.965406
    3  N  1  S    0.000000   0.000000  -2.407122
    4  N  1  X    0.000000  -0.558528   0.000000
    5  N  1  Y   -0.558528   0.000000   0.000000
    6  N  1  Z    0.000000   0.000000   0.260553
    7  N  1  X    0.000000   1.078909   0.000000
    8  N  1  Y    1.078909   0.000000   0.000000
    9  N  1  Z    0.000000   0.000000  -1.781036
   10  N  2  S    0.000000   0.000000  -0.001706
   11  N  2  S    0.000000   0.000000  -0.965406
   12  N  2  S    0.000000   0.000000   2.407122
   13  N  2  X    0.000000   0.558528   0.000000
   14  N  2  Y    0.558528   0.000000   0.000000
   15  N  2  Z    0.000000   0.000000   0.260553
   16  N  2  X    0.000000  -1.078909   0.000000
   17  N  2  Y   -1.078909   0.000000   0.000000
   18  N  2  Z    0.000000   0.000000  -1.781036
 ..... DONE WITH ONE PARTICLE DENSITY MATRIX .....
 CPU     0: STEP CPU TIME=     0.96 TOTAL CPU TIME=       80.2 (    1.3 MIN)
 TOTAL WALL CLOCK TIME=      101.0 SECONDS, CPU UTILIZATION IS  79.36%

     --------------------------------------------------------
     ALDET CI PROPERTIES...FOR THE WAVEFUNCTION OF STATE    1
               USING THE EXPECTATION VALUE DENSITY
     --------------------------------------------------------

          -----------------
          ENERGY COMPONENTS
          -----------------

         WAVEFUNCTION NORMALIZATION =       1.0000000000

                ONE ELECTRON ENERGY =    -177.6572237428
                TWO ELECTRON ENERGY =      53.4727057842
           NUCLEAR REPULSION ENERGY =      15.2527560075
                                      ------------------
                       TOTAL ENERGY =    -108.9317619511

 ELECTRON-ELECTRON POTENTIAL ENERGY =      53.4727057842
  NUCLEUS-ELECTRON POTENTIAL ENERGY =    -285.9361881100
   NUCLEUS-NUCLEUS POTENTIAL ENERGY =      15.2527560075
                                      ------------------
             TOTAL POTENTIAL ENERGY =    -217.2107263182
               TOTAL KINETIC ENERGY =     108.2789643671
                 VIRIAL RATIO (V/T) =       2.0060288495

          ---------------------------------------
          MULLIKEN AND LOWDIN POPULATION ANALYSES
          ---------------------------------------

               ----- POPULATIONS IN EACH AO -----
                             MULLIKEN      LOWDIN
              1  N  1  S      2.00007     1.99570
              2  N  1  S      0.99517     0.97241
              3  N  1  S      0.95754     0.87711
              4  N  1  X      0.72834     0.67857
              5  N  1  Y      0.72834     0.67857
              6  N  1  Z      0.82384     0.76321
              7  N  1  X      0.27607     0.32584
              8  N  1  Y      0.27607     0.32584
              9  N  1  Z      0.21454     0.38275
             10  N  2  S      2.00007     1.99570
             11  N  2  S      0.99517     0.97241
             12  N  2  S      0.95754     0.87711
             13  N  2  X      0.72834     0.67857
             14  N  2  Y      0.72834     0.67857
             15  N  2  Z      0.82384     0.76321
             16  N  2  X      0.27607     0.32584
             17  N  2  Y      0.27607     0.32584
             18  N  2  Z      0.21454     0.38275

          ----- MULLIKEN ATOMIC OVERLAP POPULATIONS -----
          (OFF-DIAGONAL ELEMENTS NEED TO BE MULTIPLIED BY 2)

             1           2

    1    6.8094290
    2    0.1905710   6.8094290

          TOTAL MULLIKEN AND LOWDIN ATOMIC POPULATIONS
       ATOM         MULL.POP.    CHARGE          LOW.POP.     CHARGE
    1 N             7.000000    0.000000         7.000000    0.000000
    2 N             7.000000    0.000000         7.000000    0.000000

          ---------------------
          ELECTROSTATIC MOMENTS
          ---------------------

 POINT   1           X           Y           Z (BOHR)    CHARGE
                 0.000000    0.000000    1.606267        0.00 (A.U.)
         DX          DY          DZ         /D/  (DEBYE)
     0.000000    0.000000   -0.000000    0.000000
 ...... END OF PROPERTY EVALUATION ......
 CPU     0: STEP CPU TIME=     0.00 TOTAL CPU TIME=       80.2 (    1.3 MIN)
 TOTAL WALL CLOCK TIME=      101.5 SECONDS, CPU UTILIZATION IS  79.01%
             119866880  WORDS OF DYNAMIC MEMORY USED
 EXECUTION OF GAMESS TERMINATED NORMALLY Thu Jan 17 17:52:40 2019
 DDI: 305760 bytes (0.3 MB / 0 MWords) used by master data server.

 ----------------------------------------
 CPU timing information for all processes
 ========================================
 0: 73.868 + 6.484 = 80.352
 1: 74.192 + 5.904 = 80.96
 2: 73.632 + 4.908 = 78.540
 3: 73.852 + 7.256 = 81.108
 4: 73.660 + 5.828 = 79.488
 5: 73.952 + 5.580 = 79.532
 6: 73.88 + 5.796 = 78.884
 7: 73.56 + 5.168 = 78.224
 8: 73.868 + 5.128 = 78.996
 9: 73.276 + 5.300 = 78.576
 10: 73.484 + 5.420 = 78.904
 11: 73.532 + 5.992 = 79.524
 12: 0.292 + 2.908 = 3.200
 13: 0.04 + 0.00 = 0.04
 14: 0.00 + 0.04 = 0.04
 15: 0.08 + 0.00 = 0.08
 16: 0.04 + 0.04 = 0.08
 17: 0.04 + 0.00 = 0.04
 18: 0.00 + 0.04 = 0.04
 19: 0.08 + 0.00 = 0.08
 20: 0.04 + 0.00 = 0.04
 21: 0.04 + 0.00 = 0.04
 22: 0.04 + 0.00 = 0.04
 23: 0.04 + 0.04 = 0.08
 ----------------------------------------
 ddikick.x: exited gracefully.
unset echo
----- accounting info -----
Files used on the master node localhost were:
-rw-rw-r-- 1 maho maho    13429 Jan 17 17:52 ./N2.SV/1.7/N2.SV.fullCI.1.7.gamess.dat
-rw------- 1 maho maho     1813 Jan 17 17:50 ./N2.SV/1.7/N2.SV.fullCI.1.7.gamess.F05
-rw-rw-r-- 1 maho maho   180016 Jan 17 17:50 ./N2.SV/1.7/N2.SV.fullCI.1.7.gamess.F08
-rw-rw-r-- 1 maho maho     1376 Jan 17 17:50 ./N2.SV/1.7/N2.SV.fullCI.1.7.gamess.F09
-rw-rw-r-- 1 maho maho  1865040 Jan 17 17:52 ./N2.SV/1.7/N2.SV.fullCI.1.7.gamess.F10
-rw-rw-r-- 1 maho maho 38216480 Jan 17 17:52 ./N2.SV/1.7/N2.SV.fullCI.1.7.gamess.F12
-rw------- 1 maho maho     1813 Jan 17 17:50 ./N2.SV/1.7/N2.SV.fullCI.1.7.gamess.inp
-rw-rw-r-- 1 maho maho    46884 Jan 17 17:52 ./N2.SV/1.7/N2.SV.fullCI.1.7.gamess.log
ls: No match.
ls: No match.
ls: No match.
Thu Jan 17 17:52:43 JST 2019
0.0u 0.0s 1:44.93 0.0% 0+0k 0+8io 0pf+0w
