----- GAMESS execution script 'rungms' -----
This job is running on host localhost
under operating system Linux at Thu Jan 17 18:30:11 JST 2019
Available scratch disk space (Kbyte units) at beginning of the job is
Filesystem     1K-blocks      Used Available Use% Mounted on
/dev/sda1      895286904 141745300 708040576  17% /
GAMESS temporary binary files will be written to .
GAMESS supplementary output files will be written to .
Copying input file N2.SV/3.3/N2.SV.fullCI.3.3.gamess.inp to your run's scratch directory...
cp N2.SV/3.3/N2.SV.fullCI.3.3.gamess.inp ./N2.SV/3.3/N2.SV.fullCI.3.3.gamess.F05
unset echo
/work/pubchem/pm6/pkg/gamess_intel/ddikick.x /work/pubchem/pm6/pkg/gamess_intel/gamess.00.x N2.SV/3.3/N2.SV.fullCI.3.3.gamess -ddi 12 12 localhost localhost localhost localhost localhost localhost localhost localhost localhost localhost localhost localhost -scr .

 Distributed Data Interface kickoff program.
 Initiating 12 compute processes on 12 nodes to run the following command:
 /work/pubchem/pm6/pkg/gamess_intel/gamess.00.x N2.SV/3.3/N2.SV.fullCI.3.3.gamess 

          ******************************************************
          *         GAMESS VERSION =  5 DEC 2014 (R1)          *
          *             FROM IOWA STATE UNIVERSITY             *
          * M.W.SCHMIDT, K.K.BALDRIDGE, J.A.BOATZ, S.T.ELBERT, *
          *   M.S.GORDON, J.H.JENSEN, S.KOSEKI, N.MATSUNAGA,   *
          *          K.A.NGUYEN, S.J.SU, T.L.WINDUS,           *
          *       TOGETHER WITH M.DUPUIS, J.A.MONTGOMERY       *
          *         J.COMPUT.CHEM.  14, 1347-1363(1993)        *
          **************** 64 BIT INTEL VERSION ****************

  SINCE 1993, STUDENTS AND POSTDOCS WORKING AT IOWA STATE UNIVERSITY
  AND ALSO IN THEIR VARIOUS JOBS AFTER LEAVING ISU HAVE MADE IMPORTANT
  CONTRIBUTIONS TO THE CODE:
     IVANA ADAMOVIC, CHRISTINE AIKENS, YURI ALEXEEV, POOJA ARORA,
     ANDREY ASADCHEV, ROB BELL, PRADIPTA BANDYOPADHYAY, JONATHAN BENTZ,
     BRETT BODE, KURT BRORSEN, CALEB CARLIN, GALINA CHABAN, WEI CHEN,
     CHEOL HO CHOI, PAUL DAY, ALBERT DEFUSCO, NUWAN DESILVA, TIM DUDLEY,
     DMITRI FEDOROV, GRAHAM FLETCHER, MARK FREITAG, KURT GLAESEMANN,
     DAN KEMP, GRANT MERRILL, NORIYUKI MINEZAWA, JONATHAN MULLIN,
     TAKESHI NAGATA, SEAN NEDD, HEATHER NETZLOFF, BOSILJKA NJEGIC, RYAN OLSON,
     MIKE PAK, SPENCER PRUITT, LUKE ROSKOP, JIM SHOEMAKER, LYUDMILA SLIPCHENKO,
     TONY SMITH, SAROM SOK, JIE SONG, TETSUYA TAKETSUGU, SIMON WEBB,
     PENG XU, SOOHAENG YOO, FEDERICO ZAHARIEV

  ADDITIONAL CODE HAS BEEN PROVIDED BY COLLABORATORS IN OTHER GROUPS:
     IOWA STATE UNIVERSITY:
          JOE IVANIC, AARON WEST, LAIMUTIS BYTAUTAS, KLAUS RUEDENBERG
     UNIVERSITY OF TOKYO: KIMIHIKO HIRAO, TAKAHITO NAKAJIMA,
          TAKAO TSUNEDA, MUNEAKI KAMIYA, SUSUMU YANAGISAWA,
          KIYOSHI YAGI, MAHITO CHIBA, SEIKEN TOKURA, NAOAKI KAWAKAMI
     UNIVERSITY OF AARHUS: FRANK JENSEN
     UNIVERSITY OF IOWA: VISVALDAS KAIRYS, HUI LI
     NATIONAL INST. OF STANDARDS AND TECHNOLOGY: WALT STEVENS, DAVID GARMER
     UNIVERSITY OF PISA: BENEDETTA MENNUCCI, JACOPO TOMASI
     UNIVERSITY OF MEMPHIS: HENRY KURTZ, PRAKASHAN KORAMBATH
     UNIVERSITY OF ALBERTA: TOBY ZENG, MARIUSZ KLOBUKOWSKI
     UNIVERSITY OF NEW ENGLAND: MARK SPACKMAN
     MIE UNIVERSITY: HIROAKI UMEDA
     NAT. INST. OF ADVANCED INDUSTRIAL SCIENCE AND TECHNOLOGY: KAZUO KITAURA
     MICHIGAN STATE UNIVERSITY:
          KAROL KOWALSKI, MARTA WLOCH, JEFFREY GOUR, JESSE LUTZ,
          WEI LI, PIOTR PIECUCH
     UNIVERSITY OF SILESIA: MONIKA MUSIAL, STANISLAW KUCHARSKI
     FACULTES UNIVERSITAIRES NOTRE-DAME DE LA PAIX:
          OLIVIER QUINET, BENOIT CHAMPAGNE
     UNIVERSITY OF CALIFORNIA - SANTA BARBARA: BERNARD KIRTMAN
     INSTITUTE FOR MOLECULAR SCIENCE:
          KAZUYA ISHIMURA, MICHIO KATOUDA, AND SHIGERU NAGASE
     UNIVERSITY OF NOTRE DAME: ANNA POMOGAEVA, DAN CHIPMAN
     KYUSHU UNIVERSITY:
          HARUYUKI NAKANO,
          FENG LONG GU, JACEK KORCHOWIEC, MARCIN MAKOWSKI, AND YURIKO AOKI,
          HIROTOSHI MORI AND EISAKU MIYOSHI
     PENNSYLVANIA STATE UNIVERSITY:
          TZVETELIN IORDANOV, CHET SWALINA, JONATHAN SKONE,
          SHARON HAMMES-SCHIFFER
     WASEDA UNIVERSITY:
          MASATO KOBAYASHI, TOMOKO AKAMA, TSUGUKI TOUMA,
          TAKESHI YOSHIKAWA, YASUHIRO IKABATA, HIROMI NAKAI
     NANJING UNIVERSITY: SHUHUA LI
     UNIVERSITY OF NEBRASKA:
          PEIFENG SU, DEJUN SI, NANDUN THELLAMUREGE, YALI WANG, HUI LI
     UNIVERSITY OF ZURICH: ROBERTO PEVERATI, KIM BALDRIDGE
     N. COPERNICUS UNIVERSITY AND JACKSON STATE UNIVERSITY:
          MARIA BARYSZ
     UNIVERSITY OF COPENHAGEN: CASPER STEINMANN
     TOKYO INSTITUTE OF TECHNOLOGY: HIROYA NAKATA
     NAGOYA UNIVERSITY: YOSHIO NISHIMOTO, STEPHAN IRLE


 PARALLEL VERSION RUNNING ON       12 PROCESSORS IN       12 NODES.

 EXECUTION OF GAMESS BEGUN Thu Jan 17 18:30:11 2019

            ECHO OF THE FIRST FEW INPUT CARDS -
 INPUT CARD> $CONTRL SCFTYP=RHF CITYP=ALDET $END                                            
 INPUT CARD> $GUESS GUESS=HUCKEL $END                                                       
 INPUT CARD> $SYSTEM MWORDS=300 $END                                                        
 INPUT CARD> $CIDET SZ=0 GROUP=C2V NCORE=2 NACT=16 NELS=10 NSTGSS=6 $END                    
 INPUT CARD> $DATA                                                                          
 INPUT CARD>N2...HF...Double-zeta basis                                                     
 INPUT CARD>Cnv   2                                                                         
 INPUT CARD>                                                                                
 INPUT CARD>N     7.0    0.0      0.0     0.0                                               
 INPUT CARD>S   7                                                                           
 INPUT CARD>  1   5909.0000000              0.0011900                                       
 INPUT CARD>  2    887.5000000              0.0090990                                       
 INPUT CARD>  3    204.7000000              0.0441450                                       
 INPUT CARD>  4     59.8400000              0.1504640                                       
 INPUT CARD>  5     20.0000000              0.3567410                                       
 INPUT CARD>  6      7.1930000              0.4465330                                       
 INPUT CARD>  7      2.6860000              0.1456030                                       
 INPUT CARD>S   2                                                                           
 INPUT CARD>  1      7.1930000             -0.1604050                                       
 INPUT CARD>  2      0.7000000              1.0582150                                       
 INPUT CARD>S   1                                                                           
 INPUT CARD>  1      0.2133000              1.0000000                                       
 INPUT CARD>P   4                                                                           
 INPUT CARD>  1     26.7900000              0.0182540                                       
 INPUT CARD>  2      5.9560000              0.1164610                                       
 INPUT CARD>  3      1.7070000              0.3901780                                       
 INPUT CARD>  4      0.5314000              0.6371020                                       
 INPUT CARD>P   1                                                                           
 INPUT CARD>  1      0.1654000              1.0000000                                       
 INPUT CARD>                                                                                
 INPUT CARD>N     7.0    0.0      0.0     3.3                                               
 INPUT CARD>S   7                                                                           
 INPUT CARD>  1   5909.0000000              0.0011900                                       
 INPUT CARD>  2    887.5000000              0.0090990                                       
 INPUT CARD>  3    204.7000000              0.0441450                                       
 INPUT CARD>  4     59.8400000              0.1504640                                       
 INPUT CARD>  5     20.0000000              0.3567410                                       
 INPUT CARD>  6      7.1930000              0.4465330                                       
 INPUT CARD>  7      2.6860000              0.1456030                                       
 INPUT CARD>S   2                                                                           
 INPUT CARD>  1      7.1930000             -0.1604050                                       
 INPUT CARD>  2      0.7000000              1.0582150                                       
 INPUT CARD>S   1                                                                           
 INPUT CARD>  1      0.2133000              1.0000000                                       
 INPUT CARD>P   4                                                                           
 INPUT CARD>  1     26.7900000              0.0182540                                       
 INPUT CARD>  2      5.9560000              0.1164610                                       
 INPUT CARD>  3      1.7070000              0.3901780                                       
 INPUT CARD>  4      0.5314000              0.6371020                                       
 INPUT CARD>P   1                                                                           
  300000000 WORDS OF MEMORY AVAILABLE


     RUN TITLE
     ---------
 N2...HF...Double-zeta basis                                                     

 THE POINT GROUP OF THE MOLECULE IS CNV     
 THE ORDER OF THE PRINCIPAL AXIS IS     2

 ATOM      ATOMIC                      COORDINATES (BOHR)
           CHARGE         X                   Y                   Z
 N           7.0     0.0000000000        0.0000000000        0.0000000000
 N           7.0     0.0000000000        0.0000000000        6.2360957595

          INTERNUCLEAR DISTANCES (ANGS.)
          ------------------------------

                1 N          2 N     

   1 N       0.0000000    3.3000000  
   2 N       3.3000000    0.0000000  

  * ... LESS THAN  3.000


     ATOMIC BASIS SET
     ----------------
 THE CONTRACTED PRIMITIVE FUNCTIONS HAVE BEEN UNNORMALIZED
 THE CONTRACTED BASIS FUNCTIONS ARE NOW NORMALIZED TO UNITY

  SHELL TYPE  PRIMITIVE        EXPONENT          CONTRACTION COEFFICIENT(S)

 N         

      1   S       1          5909.0000000    0.001189999548
      1   S       2           887.5000000    0.009098996542
      1   S       3           204.7000000    0.044144983225
      1   S       4            59.8400000    0.150463942825
      1   S       5            20.0000000    0.356740864442
      1   S       6             7.1930000    0.446532830321
      1   S       7             2.6860000    0.145602944672

      2   S       8             7.1930000   -0.160405033446
      2   S       9             0.7000000    1.058215220651

      3   S      10             0.2133000    1.000000000000

      4   P      11            26.7900000    0.018253998243
      4   P      12             5.9560000    0.116460988791
      4   P      13             1.7070000    0.390177962446
      4   P      14             0.5314000    0.637101938680

      5   P      15             0.1654000    1.000000000000

 N         

      6   S      16          5909.0000000    0.001189999548
      6   S      17           887.5000000    0.009098996542
      6   S      18           204.7000000    0.044144983225
      6   S      19            59.8400000    0.150463942825
      6   S      20            20.0000000    0.356740864442
      6   S      21             7.1930000    0.446532830321
      6   S      22             2.6860000    0.145602944672

      7   S      23             7.1930000   -0.160405033446
      7   S      24             0.7000000    1.058215220651

      8   S      25             0.2133000    1.000000000000

      9   P      26            26.7900000    0.018253998243
      9   P      27             5.9560000    0.116460988791
      9   P      28             1.7070000    0.390177962446
      9   P      29             0.5314000    0.637101938680

     10   P      30             0.1654000    1.000000000000

 TOTAL NUMBER OF BASIS SET SHELLS             =   10
 NUMBER OF CARTESIAN GAUSSIAN BASIS FUNCTIONS =   18
 NUMBER OF ELECTRONS                          =   14
 CHARGE OF MOLECULE                           =    0
 SPIN MULTIPLICITY                            =    1
 NUMBER OF OCCUPIED ORBITALS (ALPHA)          =    7
 NUMBER OF OCCUPIED ORBITALS (BETA )          =    7
 TOTAL NUMBER OF ATOMS                        =    2
 THE NUCLEAR REPULSION ENERGY IS        7.8574803675

 THIS MOLECULE IS RECOGNIZED AS BEING LINEAR,
 ORBITAL LZ DEGENERACY TOLERANCE ETOLLZ= 1.00E-06

     $CONTRL OPTIONS
     ---------------
 SCFTYP=RHF          RUNTYP=ENERGY       EXETYP=RUN     
 MPLEVL=       0     CITYP =ALDET        CCTYP =NONE         VBTYP =NONE    
 DFTTYP=NONE         TDDFT =NONE    
 MULT  =       1     ICHARG=       0     NZVAR =       0     COORD =UNIQUE  
 PP    =NONE         RELWFN=NONE         LOCAL =NONE         NUMGRD=       F
 ISPHER=      -1     NOSYM =       0     MAXIT =      30     UNITS =ANGS    
 PLTORB=       F     MOLPLT=       F     AIMPAC=       F     FRIEND=        
 NPRINT=       7     IREST =       0     GEOM  =INPUT   
 NORMF =       0     NORMP =       0     ITOL  =      20     ICUT  =       9
 INTTYP=BEST         GRDTYP=BEST         QMTTOL= 1.0E-06

     $SYSTEM OPTIONS
     ---------------
  REPLICATED MEMORY=   300000000 WORDS (ON EVERY NODE).
 DISTRIBUTED MEMDDI=           0 MILLION WORDS IN AGGREGATE,
 MEMDDI DISTRIBUTED OVER  12 PROCESSORS IS           0 WORDS/PROCESSOR.
 TOTAL MEMORY REQUESTED ON EACH PROCESSOR=   300000000 WORDS.
 TIMLIM=      525600.00 MINUTES, OR     365.0 DAYS.
 PARALL= T  BALTYP=  DLB     KDIAG=    0  COREFL= F
 MXSEQ2=     300 MXSEQ3=     150  mem10=         0

          ----------------
          PROPERTIES INPUT
          ----------------

     MOMENTS            FIELD           POTENTIAL          DENSITY
 IEMOM =       1   IEFLD =       0   IEPOT =       0   IEDEN =       0
 WHERE =COMASS     WHERE =NUCLEI     WHERE =NUCLEI     WHERE =NUCLEI  
 OUTPUT=BOTH       OUTPUT=BOTH       OUTPUT=BOTH       OUTPUT=BOTH    
 IEMINT=       0   IEFINT=       0                     IEDINT=       0
                                                       MORB  =       0
          EXTRAPOLATION IN EFFECT
          SOSCF IN EFFECT
 ORBITAL PRINTING OPTION: NPREO=     1    18     2     1

     -------------------------------
     INTEGRAL TRANSFORMATION OPTIONS
     -------------------------------
     NWORD  =            0
     CUTOFF = 1.0E-09     MPTRAN =       0
     DIRTRF =       F     AOINTS =DUP     

          ----------------------
          INTEGRAL INPUT OPTIONS
          ----------------------
 NOPK  =       1 NORDER=       0 SCHWRZ=       F

     ------------------------------------------
     THE POINT GROUP IS CNV, NAXIS= 2, ORDER= 4
     ------------------------------------------

     DIMENSIONS OF THE SYMMETRY SUBSPACES ARE
 A1  =   10     A2  =    0     B1  =    4     B2  =    4

 ..... DONE SETTING UP THE RUN .....
 CPU     0: STEP CPU TIME=     0.02 TOTAL CPU TIME=        0.0 (    0.0 MIN)
 TOTAL WALL CLOCK TIME=        0.0 SECONDS, CPU UTILIZATION IS 100.00%

          ********************
          1 ELECTRON INTEGRALS
          ********************
 ...... END OF ONE-ELECTRON INTEGRALS ......
 CPU     0: STEP CPU TIME=     0.00 TOTAL CPU TIME=        0.0 (    0.0 MIN)
 TOTAL WALL CLOCK TIME=        0.1 SECONDS, CPU UTILIZATION IS  33.33%

          -------------
          GUESS OPTIONS
          -------------
          GUESS =HUCKEL            NORB  =       0          NORDER=       0
          MIX   =       F          PRTMO =       F          PUNMO =       F
          TOLZ  = 1.0E-08          TOLE  = 1.0E-05
          SYMDEN=       F          PURIFY=       F

 INITIAL GUESS ORBITALS GENERATED BY HUCKEL   ROUTINE.
 HUCKEL GUESS REQUIRES      4352 WORDS.

 SYMMETRIES FOR INITIAL GUESS ORBITALS FOLLOW.   BOTH SET(S).
     7 ORBITALS ARE OCCUPIED (    2 CORE ORBITALS).
     3=A1       4=A1       5=A1       6=B1       7=B2       8=B1       9=B2  
    10=A1      11=A1      12=A1      13=A1      14=A1      15=B1      16=B1  
    17=B2  
 ...... END OF INITIAL ORBITAL SELECTION ......
 CPU     0: STEP CPU TIME=     0.00 TOTAL CPU TIME=        0.0 (    0.0 MIN)
 TOTAL WALL CLOCK TIME=        0.1 SECONDS, CPU UTILIZATION IS  33.33%

                    ----------------------
                    AO INTEGRAL TECHNOLOGY
                    ----------------------
     S,P,L SHELL ROTATED AXIS INTEGRALS, REPROGRAMMED BY
        KAZUYA ISHIMURA (IMS) AND JOSE SIERRA (SYNSTAR).
     S,P,D,L SHELL ROTATED AXIS INTEGRALS PROGRAMMED BY
        KAZUYA ISHIMURA (INSTITUTE FOR MOLECULAR SCIENCE).
     S,P,D,F,G SHELL TO TOTAL QUARTET ANGULAR MOMENTUM SUM 5,
        ERIC PROGRAM BY GRAHAM FLETCHER (ELORET AND NASA ADVANCED
        SUPERCOMPUTING DIVISION, AMES RESEARCH CENTER).
     S,P,D,F,G,L SHELL GENERAL RYS QUADRATURE PROGRAMMED BY
        MICHEL DUPUIS (PACIFIC NORTHWEST NATIONAL LABORATORY).

          --------------------
          2 ELECTRON INTEGRALS
          --------------------

 THE -PK- OPTION IS OFF, THE INTEGRALS ARE NOT IN SUPERMATRIX FORM.
 STORING   15000 INTEGRALS/RECORD ON DISK, USING 12 BYTES/INTEGRAL.
 TWO ELECTRON INTEGRAL EVALUATION REQUIRES   89411 WORDS OF MEMORY.
 II,JST,KST,LST =  1  1  1  1 NREC =         1 INTLOC =    1
 II,JST,KST,LST =  2  1  1  1 NREC =         1 INTLOC =    2
 II,JST,KST,LST =  3  1  1  1 NREC =         1 INTLOC =    6
 II,JST,KST,LST =  4  1  1  1 NREC =         1 INTLOC =   11
 II,JST,KST,LST =  5  1  1  1 NREC =         1 INTLOC =   11
 II,JST,KST,LST =  6  1  1  1 NREC =         1 INTLOC =   71
 II,JST,KST,LST =  7  1  1  1 NREC =         1 INTLOC =   71
 II,JST,KST,LST =  8  1  1  1 NREC =         1 INTLOC =  158
 II,JST,KST,LST =  9  1  1  1 NREC =         1 INTLOC =  201
 II,JST,KST,LST = 10  1  1  1 NREC =         1 INTLOC =  288
 TOTAL NUMBER OF NONZERO TWO-ELECTRON INTEGRALS =                3789
         12 INTEGRAL RECORDS WERE STORED ON DISK FILE  8.
  ...... END OF TWO-ELECTRON INTEGRALS .....
 CPU     0: STEP CPU TIME=     0.01 TOTAL CPU TIME=        0.0 (    0.0 MIN)
 TOTAL WALL CLOCK TIME=        0.1 SECONDS, CPU UTILIZATION IS  37.50%

          --------------------------
                 RHF SCF CALCULATION
          --------------------------

     NUCLEAR ENERGY =         7.8574803675
     MAXIT =   30     NPUNCH=    2
     EXTRAP=T  DAMP=F  SHIFT=F  RSTRCT=F  DIIS=F  DEM=F  SOSCF=T
     DENSITY MATRIX CONV=  1.00E-06
     SOSCF WILL OPTIMIZE      77 ORBITAL ROTATIONS, SOGTOL=   0.250
     MEMORY REQUIRED FOR RHF ITERS=     32828 WORDS.

 ITER EX DEM     TOTAL ENERGY        E CHANGE  DENSITY CHANGE     ORB. GRAD
   1  0  0     -107.7597366114  -107.7597366114   0.270379217   0.000000000
          ---------------START SECOND ORDER SCF---------------
   2  1  0     -107.9522823542    -0.1925457428   0.118605514   0.060246000
   3  2  0     -107.9673014495    -0.0150190953   0.023790654   0.022913903
   4  3  0     -107.9699134905    -0.0026120410   0.003168258   0.001861104
   5  4  0     -107.9699316420    -0.0000181515   0.001053365   0.000391368
   6  5  0     -107.9699326698    -0.0000010277   0.000040301   0.000030607
   7  6  0     -107.9699326778    -0.0000000080   0.000020188   0.000008530
   8  7  0     -107.9699326784    -0.0000000006   0.000001187   0.000000598
   9  8  0     -107.9699326784    -0.0000000000   0.000000063   0.000000051

          -----------------
          DENSITY CONVERGED
          -----------------
     TIME TO FORM FOCK OPERATORS=       0.0 SECONDS (       0.0 SEC/ITER)
     TIME TO SOLVE SCF EQUATIONS=       0.0 SECONDS (       0.0 SEC/ITER)

 FINAL RHF ENERGY IS     -107.9699326784 AFTER   9 ITERATIONS

 LZ VALUE ANALYSIS FOR THE MOS
 ----------------------------------------
 MO     1 (    1) HAS LZ(WEIGHT)= 0.00(100.0%) 
 MO     2 (    2) HAS LZ(WEIGHT)= 0.00(100.0%) 
 MO     3 (    3) HAS LZ(WEIGHT)= 0.00(100.0%) 
 MO     4 (    4) HAS LZ(WEIGHT)= 0.00(100.0%) 
 MO     5 (    5) HAS LZ(WEIGHT)= 0.00(100.0%) 
 MO     6 (    6) HAS LZ(WEIGHT)=-1.00( 50.0%)  1.00( 50.0%) 
 MO     7 (    6) HAS LZ(WEIGHT)=-1.00( 50.0%)  1.00( 50.0%) 
 MO     8 (    7) HAS LZ(WEIGHT)=-1.00( 50.0%)  1.00( 50.0%) 
 MO     9 (    7) HAS LZ(WEIGHT)=-1.00( 50.0%)  1.00( 50.0%) 
 MO    10 (    8) HAS LZ(WEIGHT)= 0.00(100.0%) 
 MO    11 (    9) HAS LZ(WEIGHT)= 0.00(100.0%) 
 MO    12 (   10) HAS LZ(WEIGHT)=-1.00( 50.0%)  1.00( 50.0%) 
 MO    13 (   10) HAS LZ(WEIGHT)=-1.00( 50.0%)  1.00( 50.0%) 
 MO    14 (   11) HAS LZ(WEIGHT)=-1.00( 50.0%)  1.00( 50.0%) 
 MO    15 (   11) HAS LZ(WEIGHT)=-1.00( 50.0%)  1.00( 50.0%) 
 MO    16 (   12) HAS LZ(WEIGHT)= 0.00(100.0%) 
 MO    17 (   13) HAS LZ(WEIGHT)= 0.00(100.0%) 
 MO    18 (   14) HAS LZ(WEIGHT)= 0.00(100.0%) 

          ------------
          EIGENVECTORS
          ------------

                      1          2          3          4          5
                  -15.8350   -15.8349    -1.0409    -1.0257    -0.3569
                     A1         A1         A1         A1         A1  
    1  N  1  S    0.706984   0.706990  -0.172858   0.174059  -0.006735
    2  N  1  S   -0.000177  -0.000179   0.408303  -0.416762   0.031930
    3  N  1  S    0.000934   0.000899   0.358056  -0.352911  -0.005971
    4  N  1  X    0.000000   0.000000   0.000000   0.000000   0.000000
    5  N  1  Y    0.000000   0.000000   0.000000   0.000000   0.000000
    6  N  1  Z    0.000198   0.000122   0.003528   0.015140  -0.484055
    7  N  1  X    0.000000   0.000000   0.000000   0.000000   0.000000
    8  N  1  Y    0.000000   0.000000   0.000000   0.000000   0.000000
    9  N  1  Z   -0.000065  -0.000056   0.006200   0.008717  -0.294632
   10  N  2  S    0.706984  -0.706990  -0.172858  -0.174059  -0.006735
   11  N  2  S   -0.000177   0.000179   0.408303   0.416762   0.031930
   12  N  2  S    0.000934  -0.000899   0.358056   0.352911  -0.005971
   13  N  2  X    0.000000   0.000000   0.000000   0.000000   0.000000
   14  N  2  Y    0.000000   0.000000   0.000000   0.000000   0.000000
   15  N  2  Z   -0.000198   0.000122  -0.003528   0.015140   0.484055
   16  N  2  X    0.000000   0.000000   0.000000   0.000000   0.000000
   17  N  2  Y    0.000000   0.000000   0.000000   0.000000   0.000000
   18  N  2  Z    0.000065  -0.000056  -0.006200   0.008717   0.294632

                      6          7          8          9         10
                   -0.3398    -0.3398    -0.1773    -0.1773    -0.1497
                     B2         B1         B2         B1         A1  
    1  N  1  S    0.000000   0.000000   0.000000   0.000000  -0.009156
    2  N  1  S    0.000000   0.000000   0.000000   0.000000   0.030558
    3  N  1  S    0.000000   0.000000   0.000000   0.000000   0.008252
    4  N  1  X    0.000000   0.504143   0.000000   0.511552   0.000000
    5  N  1  Y    0.504143   0.000000   0.511552   0.000000   0.000000
    6  N  1  Z    0.000000   0.000000   0.000000   0.000000   0.522215
    7  N  1  X    0.000000   0.292756   0.000000   0.291947   0.000000
    8  N  1  Y    0.292756   0.000000   0.291947   0.000000   0.000000
    9  N  1  Z    0.000000   0.000000   0.000000   0.000000   0.300782
   10  N  2  S    0.000000   0.000000   0.000000   0.000000   0.009156
   11  N  2  S    0.000000   0.000000   0.000000   0.000000  -0.030558
   12  N  2  S    0.000000   0.000000   0.000000   0.000000  -0.008252
   13  N  2  X    0.000000   0.504143   0.000000  -0.511552   0.000000
   14  N  2  Y    0.504143   0.000000  -0.511552   0.000000   0.000000
   15  N  2  Z    0.000000   0.000000   0.000000   0.000000   0.522215
   16  N  2  X    0.000000   0.292756   0.000000  -0.291947   0.000000
   17  N  2  Y    0.292756   0.000000  -0.291947   0.000000   0.000000
   18  N  2  Z    0.000000   0.000000   0.000000   0.000000   0.300782

                     11         12         13         14         15
                    0.5812     0.6129     0.6129     0.6682     0.6682
                     A1         B2         B1         B2         B1  
    1  N  1  S    0.021533   0.000000   0.000000   0.000000   0.000000
    2  N  1  S   -0.192060   0.000000   0.000000   0.000000   0.000000
    3  N  1  S    0.154294   0.000000   0.000000   0.000000   0.000000
    4  N  1  X    0.000000   0.000000  -0.656978   0.000000  -0.662283
    5  N  1  Y    0.000000  -0.656978   0.000000  -0.662283   0.000000
    6  N  1  Z   -0.649708   0.000000   0.000000   0.000000   0.000000
    7  N  1  X    0.000000   0.000000   0.757388   0.000000   0.802698
    8  N  1  Y    0.000000   0.757388   0.000000   0.802698   0.000000
    9  N  1  Z    0.662283   0.000000   0.000000   0.000000   0.000000
   10  N  2  S    0.021533   0.000000   0.000000   0.000000   0.000000
   11  N  2  S   -0.192060   0.000000   0.000000   0.000000   0.000000
   12  N  2  S    0.154294   0.000000   0.000000   0.000000   0.000000
   13  N  2  X    0.000000   0.000000  -0.656978   0.000000   0.662283
   14  N  2  Y    0.000000  -0.656978   0.000000   0.662283   0.000000
   15  N  2  Z    0.649708   0.000000   0.000000   0.000000   0.000000
   16  N  2  X    0.000000   0.000000   0.757388   0.000000  -0.802698
   17  N  2  Y    0.000000   0.757388   0.000000  -0.802698   0.000000
   18  N  2  Z   -0.662283   0.000000   0.000000   0.000000   0.000000

                     16         17         18
                    0.7208     0.8790     1.0077
                     A1         A1         A1  
    1  N  1  S   -0.038711  -0.089133   0.080484
    2  N  1  S    0.408773   1.083983  -1.049385
    3  N  1  S   -0.371035  -1.078043   1.078904
    4  N  1  X    0.000000   0.000000   0.000000
    5  N  1  Y    0.000000   0.000000   0.000000
    6  N  1  Z   -0.618774  -0.129263  -0.280482
    7  N  1  X    0.000000   0.000000   0.000000
    8  N  1  Y    0.000000   0.000000   0.000000
    9  N  1  Z    0.821676   0.179211   0.432082
   10  N  2  S    0.038711  -0.089133  -0.080484
   11  N  2  S   -0.408773   1.083983   1.049385
   12  N  2  S    0.371035  -1.078043  -1.078904
   13  N  2  X    0.000000   0.000000   0.000000
   14  N  2  Y    0.000000   0.000000   0.000000
   15  N  2  Z   -0.618774   0.129263  -0.280482
   16  N  2  X    0.000000   0.000000   0.000000
   17  N  2  Y    0.000000   0.000000   0.000000
   18  N  2  Z    0.821676  -0.179211   0.432082
 ...... END OF RHF CALCULATION ......
 CPU     0: STEP CPU TIME=     0.01 TOTAL CPU TIME=        0.0 (    0.0 MIN)
 TOTAL WALL CLOCK TIME=        0.1 SECONDS, CPU UTILIZATION IS  50.00%

     ----------------------------------------------------------------
     PROPERTY VALUES FOR THE RHF   SELF-CONSISTENT FIELD WAVEFUNCTION
     ----------------------------------------------------------------

          -----------------
          ENERGY COMPONENTS
          -----------------

         WAVEFUNCTION NORMALIZATION =       1.0000000000

                ONE ELECTRON ENERGY =    -162.1089825970
                TWO ELECTRON ENERGY =      46.2815695511
           NUCLEAR REPULSION ENERGY =       7.8574803675
                                      ------------------
                       TOTAL ENERGY =    -107.9699326784

 ELECTRON-ELECTRON POTENTIAL ENERGY =      46.2815695511
  NUCLEUS-ELECTRON POTENTIAL ENERGY =    -269.4913728732
   NUCLEUS-NUCLEUS POTENTIAL ENERGY =       7.8574803675
                                      ------------------
             TOTAL POTENTIAL ENERGY =    -215.3523229545
               TOTAL KINETIC ENERGY =     107.3823902762
                 VIRIAL RATIO (V/T) =       2.0054714968

  ...... PI ENERGY ANALYSIS ......

 ENERGY ANALYSIS:
            FOCK ENERGY=    -69.5458430689
          BARE H ENERGY=   -162.1089825970
     ELECTRONIC ENERGY =   -115.8274128329
         KINETIC ENERGY=    107.3823902762
          N-N REPULSION=      7.8574803675
           TOTAL ENERGY=   -107.9699324654
        SIGMA PART(1+2)=   -103.8016317351
               (K,V1,2)=    100.9601953347   -240.3766723993     35.6148453295
           PI PART(1+2)=    -12.0257810978
               (K,V1,2)=      6.4221949415    -29.1147004738     10.6667244345
  SIGMA SKELETON, ERROR=    -95.9441513676     -0.0000000000
             MIXED PART= 0.00000E+00 0.00000E+00 0.00000E+00 0.00000E+00
 ...... END OF PI ENERGY ANALYSIS ......

          ---------------------------------------
          MULLIKEN AND LOWDIN POPULATION ANALYSES
          ---------------------------------------

               ----- POPULATIONS IN EACH AO -----
                             MULLIKEN      LOWDIN
              1  N  1  S      2.00013     1.99716
              2  N  1  S      1.07195     1.03916
              3  N  1  S      0.92725     0.96205
              4  N  1  X      0.66502     0.63825
              5  N  1  Y      0.66502     0.63825
              6  N  1  Z      0.62868     0.59773
              7  N  1  X      0.33498     0.36175
              8  N  1  Y      0.33498     0.36175
              9  N  1  Z      0.37199     0.40390
             10  N  2  S      2.00013     1.99716
             11  N  2  S      1.07195     1.03916
             12  N  2  S      0.92725     0.96205
             13  N  2  X      0.66502     0.63825
             14  N  2  Y      0.66502     0.63825
             15  N  2  Z      0.62868     0.59773
             16  N  2  X      0.33498     0.36175
             17  N  2  Y      0.33498     0.36175
             18  N  2  Z      0.37199     0.40390

          ----- MULLIKEN ATOMIC OVERLAP POPULATIONS -----
          (OFF-DIAGONAL ELEMENTS NEED TO BE MULTIPLIED BY 2)

             1           2

    1    6.9245060
    2    0.0754940   6.9245060

          TOTAL MULLIKEN AND LOWDIN ATOMIC POPULATIONS
       ATOM         MULL.POP.    CHARGE          LOW.POP.     CHARGE
    1 N             7.000000    0.000000         7.000000    0.000000
    2 N             7.000000   -0.000000         7.000000   -0.000000

          ---------------------
          ELECTROSTATIC MOMENTS
          ---------------------

 POINT   1           X           Y           Z (BOHR)    CHARGE
                 0.000000    0.000000    3.118048        0.00 (A.U.)
         DX          DY          DZ         /D/  (DEBYE)
     0.000000    0.000000   -0.000000    0.000000
 ...... END OF PROPERTY EVALUATION ......
 CPU     0: STEP CPU TIME=     0.01 TOTAL CPU TIME=        0.0 (    0.0 MIN)
 TOTAL WALL CLOCK TIME=        0.1 SECONDS, CPU UTILIZATION IS  38.46%

 DETERMINANT CI OPTIONS   NRNFG   NPFLG
 INTEGRAL TRANSFORMATION    1       0
 DIAGONALIZE HAMILTONIAN    1       0
 FORM 1E- DENSITY MATRIX    1       0
 FORM 2E- DENSITY MATRIX    0       0

     --------------------------------------------------
          AMES LABORATORY DETERMINANTAL FULL CI
     PROGRAM WRITTEN BY JOE IVANIC AND KLAUS RUEDENBERG
     --------------------------------------------------

 THE POINT GROUP                  =   C2V     
 THE STATE SYMMETRY               =   A1      
 NUMBER OF CORE ORBITALS          =    2
 NUMBER OF ACTIVE ORBITALS        =   16
 NUMBER OF ALPHA ELECTRONS        =    7 (   5 ACTIVE)
 NUMBER OF BETA ELECTRONS         =    7 (   5 ACTIVE)
 NUMBER OF OCCUPIED ORBITALS      =   18
 NUMBER OF CI STATES REQUESTED    =    1
 NUMBER OF CI STARTING VECTORS    =    6
 MAX. NO. OF CI EXPANSION VECTORS =   12
 SIZE OF INITIAL CI GUESS MATRIX  =  300
 MAX. NO. OF CI ITERS/STATE       =  100
 CI DIAGONALIZATION CRITERION     = 1.00E-06
 CI PROPERTIES WILL BE FOUND FOR ROOT NUMBER   1
 1E- DENSITY MATRIX OPTIONS ARE 1

 CORRELATION ENERGY ANALYSIS      =    F

 SYMMETRIES FOR THE   2 CORE,  16 ACTIVE ARE

     CORE= A1    A1  

   ACTIVE= A1    A1    A1    B2    B1    B2    B1    A1    A1    B2  
           B1    B2    B1    A1    A1    A1  

     --------------------------------------------
     PARTIAL TWO ELECTRON INTEGRAL TRANSFORMATION
     --------------------------------------------

 NUMBER OF CORE MOLECULAR ORBITALS     =    2
 NUMBER OF OCCUPIED MOLECULAR ORBITALS =   18
 TOTAL NUMBER OF MOLECULAR ORBITALS    =   18
 TOTAL NUMBER OF ATOMIC ORBITALS       =   18
 THRESHOLD FOR KEEPING TRANSFORMED 2E- INTEGRALS = 1.000E-09

 -------------------------------     ------------------------------
 DISTRIBUTED DATA TRANSFORMATION     PROGRAM WRITTEN BY G. FLETCHER
 -------------------------------     ------------------------------

 THE DISTRIBUTED MEMORY REQUIRED FOR THIS STEP IS MEMDDI=         1 MWORDS
 CREATING DISTRIBUTED STORAGE FOR [OCC OCC|OCC OCC] INTEGRALS
 DDI: Creating Array [0] - 171 x 171 = 29241 words.
 CREATING WORKSPACE OF SIZE VVOO
 DDI: Creating Array [1] - 171 x 171 = 29241 words.
 FOR   12 PROCESSORS, THE REPLICATED MEMORY NEEDED IS       58507 WORDS.

      DIRECT 4-INDEX TRANSFORMATION 
      SCHWARZ INEQUALITY TEST SKIPPED          0 INTEGRAL BLOCKS
 ----- FROZEN CORE ENERGY =       -93.3127918652
 ... END OF INTEGRAL TRANSFORMATION ...
 CPU     0: STEP CPU TIME=     0.00 TOTAL CPU TIME=        0.0 (    0.0 MIN)
 TOTAL WALL CLOCK TIME=        0.2 SECONDS, CPU UTILIZATION IS  31.25%

     --------------------------------------------------
          AMES LABORATORY DETERMINANTAL FULL CI
     PROGRAM WRITTEN BY JOE IVANIC AND KLAUS RUEDENBERG
     --------------------------------------------------

 THE NUMBER OF DETERMINANTS HAVING SPACE SYMMETRY A1 
 IN POINT GROUP C2V  WITH SZ=  0.0 IS        4777056
 THE DETERMINANT FULL CI REQUIRES       119865995 WORDS
 INITIAL CI VECTOR GUESS TIME  :          1.5
 INITIAL FULL CI ITERATION TIME:          5.6

 ITERATION      ENERGY           GRADIENT
     0     -108.7438027779     0.45514520
     1     -108.8428981770     0.18333770
     2     -108.8549250542     0.06886816
     3     -108.8564256254     0.03099277
     4     -108.8567523062     0.01561525
     5     -108.8568256127     0.00617497
     6     -108.8568358508     0.00248908
     7     -108.8568369834     0.00154352
     8     -108.8568376248     0.00115393
     9     -108.8568381414     0.00092663
    10     -108.8568383656     0.00060526
    11     -108.8568384457     0.00043448
    12     -108.8568384956     0.00026879
    13     -108.8568385137     0.00020257
    14     -108.8568385314     0.00024821
    15     -108.8568385547     0.00026593
    16     -108.8568385859     0.00028205
    17     -108.8568386290     0.00042083
    18     -108.8568387001     0.00058967
    19     -108.8568387924     0.00056047
    20     -108.8568389710     0.00078114
    21     -108.8568399129     0.00260652
    22     -108.8569518225     0.03347845
    23     -108.8571703094     0.01685984
    24     -108.8572277051     0.00839993
    25     -108.8572462603     0.00665445
    26     -108.8572613417     0.00498357
    27     -108.8572665241     0.00305020
    28     -108.8572682615     0.00143666
    29     -108.8572687377     0.00079016
    30     -108.8572688504     0.00057945
    31     -108.8572689039     0.00036430
    32     -108.8572689478     0.00026002
    33     -108.8572689711     0.00020717
    34     -108.8572689800     0.00012073
    35     -108.8572689834     0.00006435
    36     -108.8572689843     0.00004582
    37     -108.8572689847     0.00002830
    38     -108.8572689850     0.00001999
    39     -108.8572689851     0.00001387
    40     -108.8572689851     0.00000780
    41     -108.8572689851     0.00000580
    42     -108.8572689851     0.00000495
    43     -108.8572689851     0.00000295
    44     -108.8572689851     0.00000196
    45     -108.8572689851     0.00000171
    46     -108.8572689851     0.00000113
    47     -108.8572689851     0.00000070

 CONVERGED STATE    1 ENERGY=     -108.8572689851 IN   47 ITERS

 ALL STATES CONVERGED.

 CI EIGENVECTORS WILL BE LABELED IN GROUP=C2V     
 PRINTING CI COEFFICIENTS LARGER THAN  0.050000

 STATE   1  ENERGY=      -108.8572689851  S=  0.00  SZ=  0.00  SPACE SYM=A1  

      ALPHA       |      BETA        | COEFFICIENT
------------------|------------------|------------
 1111100000000000 | 1111100000000000 |   0.2626396
 1110110000000000 | 1110110000000000 |  -0.2560175
 1111001000000000 | 1111001000000000 |  -0.2560175
 1110011000000000 | 1110011000000000 |   0.2496803
 1101100100000000 | 1101100100000000 |  -0.2299401
 1101001100000000 | 1101001100000000 |   0.2247535
 1100110100000000 | 1100110100000000 |   0.2247535
 1100011100000000 | 1100011100000000 |  -0.2197994
 1110101000000000 | 1111010000000000 |   0.1706144
 1111010000000000 | 1110101000000000 |   0.1706144
 1101101000000000 | 1111000100000000 |  -0.1605834
 1111000100000000 | 1101101000000000 |  -0.1605834
 1110100100000000 | 1101110000000000 |   0.1605834
 1101110000000000 | 1110100100000000 |   0.1605834
 1100111000000000 | 1110010100000000 |  -0.1567735
 1110010100000000 | 1100111000000000 |  -0.1567735
 1110001100000000 | 1101011000000000 |   0.1567735
 1101011000000000 | 1110001100000000 |   0.1567735
 1100101100000000 | 1101010100000000 |  -0.1497771
 1101010100000000 | 1100101100000000 |  -0.1497771
 1111001000000000 | 1110110000000000 |   0.0853879
 1110110000000000 | 1111001000000000 |   0.0853879
 1111100000000000 | 1110011000000000 |   0.0852264
 1110011000000000 | 1111100000000000 |   0.0852264
 1101100100000000 | 1110110000000000 |   0.0807104
 1110110000000000 | 1101100100000000 |   0.0807104
 1111001000000000 | 1101100100000000 |  -0.0807104
 1101100100000000 | 1111001000000000 |  -0.0807104
 1100110100000000 | 1111100000000000 |  -0.0798730
 1111100000000000 | 1100110100000000 |  -0.0798730
 1111100000000000 | 1101001100000000 |   0.0798730
 1101001100000000 | 1111100000000000 |   0.0798730
 1101001100000000 | 1110011000000000 |   0.0788008
 1110011000000000 | 1101001100000000 |   0.0788008
 1110011000000000 | 1100110100000000 |  -0.0788008
 1100110100000000 | 1110011000000000 |  -0.0788008
 1111001000000000 | 1100011100000000 |  -0.0779728
 1100011100000000 | 1111001000000000 |  -0.0779728
 1110110000000000 | 1100011100000000 |   0.0779728
 1100011100000000 | 1110110000000000 |   0.0779728
 1100110100000000 | 1101001100000000 |  -0.0749638
 1101001100000000 | 1100110100000000 |  -0.0749638
 1101100100000000 | 1100011100000000 |  -0.0748133
 1100011100000000 | 1101100100000000 |  -0.0748133
 ..... DONE WITH DETERMINANT CI COMPUTATION .....
 CPU     0: STEP CPU TIME=   124.56 TOTAL CPU TIME=      124.6 (    2.1 MIN)
 TOTAL WALL CLOCK TIME=      158.1 SECONDS, CPU UTILIZATION IS  78.80%

     ---------------------------
     ONE PARTICLE DENSITY MATRIX
     ---------------------------

 DENSITY MATRIX WILL BE SAVED FOR   1-TH STATE WITH S= 0.00

 CI EIGENSTATE   1 TOTAL ENERGY =     -108.8572689851

          NATURAL ORBITALS IN ATOMIC ORBITAL BASIS
          ----------------------------------------

                      1          2          3          4          5
                    2.0000     2.0000     1.9853     1.9841     1.0858
                     A1         A1         A1         A1         A1  
    1  N  1  S    0.706984  -0.706990  -0.170395  -0.171588  -0.002231
    2  N  1  S   -0.000177   0.000179   0.378871   0.385149   0.005888
    3  N  1  S    0.000934  -0.000899   0.387105   0.385077   0.006424
    4  N  1  X    0.000000   0.000000   0.000000   0.000000   0.000000
    5  N  1  Y    0.000000   0.000000   0.000000   0.000000   0.000000
    6  N  1  Z    0.000198  -0.000122  -0.002489   0.001974  -0.547160
    7  N  1  X    0.000000   0.000000   0.000000   0.000000   0.000000
    8  N  1  Y    0.000000   0.000000   0.000000   0.000000   0.000000
    9  N  1  Z   -0.000065   0.000056   0.001537  -0.003268  -0.226378
   10  N  2  S    0.706984   0.706990  -0.170395   0.171588  -0.002231
   11  N  2  S   -0.000177  -0.000179   0.378871  -0.385149   0.005888
   12  N  2  S    0.000934   0.000899   0.387105  -0.385077   0.006424
   13  N  2  X    0.000000   0.000000   0.000000   0.000000   0.000000
   14  N  2  Y    0.000000   0.000000   0.000000   0.000000   0.000000
   15  N  2  Z   -0.000198  -0.000122   0.002489   0.001974   0.547160
   16  N  2  X    0.000000   0.000000   0.000000   0.000000   0.000000
   17  N  2  Y    0.000000   0.000000   0.000000   0.000000   0.000000
   18  N  2  Z    0.000065   0.000056  -0.001537  -0.003268   0.226378

                      6          7          8          9         10
                    1.0121     1.0121     0.9789     0.9789     0.9056
                     B2         B1         B2         B1         A1  
    1  N  1  S    0.000000   0.000000   0.000000   0.000000  -0.002811
    2  N  1  S    0.000000   0.000000   0.000000   0.000000   0.006704
    3  N  1  S    0.000000   0.000000   0.000000   0.000000   0.007251
    4  N  1  X    0.000000   0.557200   0.000000   0.562951   0.000000
    5  N  1  Y    0.557200   0.000000   0.562951   0.000000   0.000000
    6  N  1  Z    0.000000   0.000000   0.000000   0.000000   0.574227
    7  N  1  X    0.000000   0.228543   0.000000   0.226720   0.000000
    8  N  1  Y    0.228543   0.000000   0.226720   0.000000   0.000000
    9  N  1  Z    0.000000   0.000000   0.000000   0.000000   0.227816
   10  N  2  S    0.000000   0.000000   0.000000   0.000000   0.002811
   11  N  2  S    0.000000   0.000000   0.000000   0.000000  -0.006704
   12  N  2  S    0.000000   0.000000   0.000000   0.000000  -0.007251
   13  N  2  X    0.000000   0.557200   0.000000  -0.562951   0.000000
   14  N  2  Y    0.557200   0.000000  -0.562951   0.000000   0.000000
   15  N  2  Z    0.000000   0.000000   0.000000   0.000000   0.574227
   16  N  2  X    0.000000   0.228543   0.000000  -0.226720   0.000000
   17  N  2  Y    0.228543   0.000000  -0.226720   0.000000   0.000000
   18  N  2  Z    0.000000   0.000000   0.000000   0.000000   0.227816

                     11         12         13         14         15
                    0.0118     0.0104     0.0068     0.0062     0.0062
                     A1         A1         A1         B2         B1  
    1  N  1  S   -0.094920  -0.093118   0.016855   0.000000   0.000000
    2  N  1  S    1.080538   1.103180  -0.261718   0.000000   0.000000
    3  N  1  S   -1.039083  -1.082266   0.290930   0.000000   0.000000
    4  N  1  X    0.000000   0.000000   0.000000   0.000000  -0.612625
    5  N  1  Y    0.000000   0.000000   0.000000  -0.612625   0.000000
    6  N  1  Z    0.121800  -0.115810   0.599103   0.000000   0.000000
    7  N  1  X    0.000000   0.000000   0.000000   0.000000   0.779173
    8  N  1  Y    0.000000   0.000000   0.000000   0.779173   0.000000
    9  N  1  Z   -0.113739   0.135322  -0.702422   0.000000   0.000000
   10  N  2  S   -0.094920   0.093118   0.016855   0.000000   0.000000
   11  N  2  S    1.080538  -1.103180  -0.261718   0.000000   0.000000
   12  N  2  S   -1.039083   1.082266   0.290930   0.000000   0.000000
   13  N  2  X    0.000000   0.000000   0.000000   0.000000  -0.612625
   14  N  2  Y    0.000000   0.000000   0.000000  -0.612625   0.000000
   15  N  2  Z   -0.121800  -0.115810  -0.599103   0.000000   0.000000
   16  N  2  X    0.000000   0.000000   0.000000   0.000000   0.779173
   17  N  2  Y    0.000000   0.000000   0.000000   0.779173   0.000000
   18  N  2  Z    0.113739   0.135322   0.702422   0.000000   0.000000

                     16         17         18
                    0.0057     0.0057     0.0046
                     B2         B1         A1  
    1  N  1  S    0.000000   0.000000   0.015343
    2  N  1  S    0.000000   0.000000  -0.278455
    3  N  1  S    0.000000   0.000000   0.326616
    4  N  1  X    0.000000  -0.619185   0.000000
    5  N  1  Y   -0.619185   0.000000   0.000000
    6  N  1  Z    0.000000   0.000000  -0.625568
    7  N  1  X    0.000000   0.823502   0.000000
    8  N  1  Y    0.823502   0.000000   0.000000
    9  N  1  Z    0.000000   0.000000   0.939238
   10  N  2  S    0.000000   0.000000  -0.015343
   11  N  2  S    0.000000   0.000000   0.278455
   12  N  2  S    0.000000   0.000000  -0.326616
   13  N  2  X    0.000000   0.619185   0.000000
   14  N  2  Y    0.619185   0.000000   0.000000
   15  N  2  Z    0.000000   0.000000  -0.625568
   16  N  2  X    0.000000  -0.823502   0.000000
   17  N  2  Y   -0.823502   0.000000   0.000000
   18  N  2  Z    0.000000   0.000000   0.939238
 ..... DONE WITH ONE PARTICLE DENSITY MATRIX .....
 CPU     0: STEP CPU TIME=     1.00 TOTAL CPU TIME=      125.6 (    2.1 MIN)
 TOTAL WALL CLOCK TIME=      159.1 SECONDS, CPU UTILIZATION IS  78.94%

     --------------------------------------------------------
     ALDET CI PROPERTIES...FOR THE WAVEFUNCTION OF STATE    1
               USING THE EXPECTATION VALUE DENSITY
     --------------------------------------------------------

          -----------------
          ENERGY COMPONENTS
          -----------------

         WAVEFUNCTION NORMALIZATION =       1.0000000000

                ONE ELECTRON ENERGY =    -163.3817982901
                TWO ELECTRON ENERGY =      46.6670489375
           NUCLEAR REPULSION ENERGY =       7.8574803675
                                      ------------------
                       TOTAL ENERGY =    -108.8572689851

 ELECTRON-ELECTRON POTENTIAL ENERGY =      46.6670489375
  NUCLEUS-ELECTRON POTENTIAL ENERGY =    -272.0916934059
   NUCLEUS-NUCLEUS POTENTIAL ENERGY =       7.8574803675
                                      ------------------
             TOTAL POTENTIAL ENERGY =    -217.5671641009
               TOTAL KINETIC ENERGY =     108.7098951158
                 VIRIAL RATIO (V/T) =       2.0013556620

          ---------------------------------------
          MULLIKEN AND LOWDIN POPULATION ANALYSES
          ---------------------------------------

               ----- POPULATIONS IN EACH AO -----
                             MULLIKEN      LOWDIN
              1  N  1  S      2.00013     1.99633
              2  N  1  S      0.98080     0.98324
              3  N  1  S      1.01426     1.01485
              4  N  1  X      0.75975     0.72077
              5  N  1  Y      0.75975     0.72077
              6  N  1  Z      0.75898     0.71987
              7  N  1  X      0.24167     0.28065
              8  N  1  Y      0.24167     0.28065
              9  N  1  Z      0.24298     0.28288
             10  N  2  S      2.00013     1.99633
             11  N  2  S      0.98080     0.98324
             12  N  2  S      1.01426     1.01485
             13  N  2  X      0.75975     0.72077
             14  N  2  Y      0.75975     0.72077
             15  N  2  Z      0.75898     0.71987
             16  N  2  X      0.24167     0.28065
             17  N  2  Y      0.24167     0.28065
             18  N  2  Z      0.24298     0.28288

          ----- MULLIKEN ATOMIC OVERLAP POPULATIONS -----
          (OFF-DIAGONAL ELEMENTS NEED TO BE MULTIPLIED BY 2)

             1           2

    1    6.9969876
    2    0.0030124   6.9969876

          TOTAL MULLIKEN AND LOWDIN ATOMIC POPULATIONS
       ATOM         MULL.POP.    CHARGE          LOW.POP.     CHARGE
    1 N             7.000000   -0.000000         7.000000   -0.000000
    2 N             7.000000   -0.000000         7.000000   -0.000000

          ---------------------
          ELECTROSTATIC MOMENTS
          ---------------------

 POINT   1           X           Y           Z (BOHR)    CHARGE
                 0.000000    0.000000    3.118048       -0.00 (A.U.)
         DX          DY          DZ         /D/  (DEBYE)
     0.000000    0.000000   -0.000000    0.000000
 ...... END OF PROPERTY EVALUATION ......
 CPU     0: STEP CPU TIME=     0.01 TOTAL CPU TIME=      125.6 (    2.1 MIN)
 TOTAL WALL CLOCK TIME=      159.6 SECONDS, CPU UTILIZATION IS  78.71%
             119866871  WORDS OF DYNAMIC MEMORY USED
 EXECUTION OF GAMESS TERMINATED NORMALLY Thu Jan 17 18:32:51 2019
 DDI: 305760 bytes (0.3 MB / 0 MWords) used by master data server.

 ----------------------------------------
 CPU timing information for all processes
 ========================================
 0: 117.340 + 8.404 = 125.744
 1: 116.64 + 9.608 = 125.672
 2: 115.260 + 8.592 = 123.852
 3: 116.696 + 9.524 = 126.220
 4: 117.672 + 9.784 = 127.456
 5: 116.284 + 7.800 = 124.84
 6: 116.392 + 9.696 = 126.88
 7: 116.72 + 8.44 = 124.116
 8: 115.840 + 7.252 = 123.92
 9: 115.228 + 8.312 = 123.540
 10: 117.348 + 7.740 = 125.88
 11: 116.984 + 7.88 = 124.72
 12: 0.484 + 4.812 = 5.296
 13: 0.04 + 0.04 = 0.08
 14: 0.04 + 0.04 = 0.08
 15: 0.04 + 0.00 = 0.04
 16: 0.04 + 0.04 = 0.08
 17: 0.04 + 0.00 = 0.04
 18: 0.04 + 0.04 = 0.08
 19: 0.04 + 0.00 = 0.04
 20: 0.00 + 0.04 = 0.04
 21: 0.00 + 0.04 = 0.04
 22: 0.04 + 0.00 = 0.04
 23: 0.04 + 0.00 = 0.04
 ----------------------------------------
 ddikick.x: exited gracefully.
unset echo
----- accounting info -----
Files used on the master node localhost were:
-rw-rw-r-- 1 maho maho    13429 Jan 17 18:32 ./N2.SV/3.3/N2.SV.fullCI.3.3.gamess.dat
-rw------- 1 maho maho     1813 Jan 17 18:30 ./N2.SV/3.3/N2.SV.fullCI.3.3.gamess.F05
-rw-rw-r-- 1 maho maho   180016 Jan 17 18:30 ./N2.SV/3.3/N2.SV.fullCI.3.3.gamess.F08
-rw-rw-r-- 1 maho maho     1376 Jan 17 18:30 ./N2.SV/3.3/N2.SV.fullCI.3.3.gamess.F09
-rw-rw-r-- 1 maho maho  1865040 Jan 17 18:32 ./N2.SV/3.3/N2.SV.fullCI.3.3.gamess.F10
-rw-rw-r-- 1 maho maho 38216480 Jan 17 18:32 ./N2.SV/3.3/N2.SV.fullCI.3.3.gamess.F12
-rw------- 1 maho maho     1813 Jan 17 18:30 ./N2.SV/3.3/N2.SV.fullCI.3.3.gamess.inp
-rw-rw-r-- 1 maho maho    49179 Jan 17 18:32 ./N2.SV/3.3/N2.SV.fullCI.3.3.gamess.log
ls: No match.
ls: No match.
ls: No match.
Thu Jan 17 18:32:54 JST 2019
0.0u 0.0s 2:43.05 0.0% 0+0k 0+8io 0pf+0w
