----- GAMESS execution script 'rungms' -----
This job is running on host localhost
under operating system Linux at Thu Jan 17 18:18:32 JST 2019
Available scratch disk space (Kbyte units) at beginning of the job is
Filesystem     1K-blocks      Used Available Use% Mounted on
/dev/sda1      895286904 141744564 708041312  17% /
GAMESS temporary binary files will be written to .
GAMESS supplementary output files will be written to .
Copying input file N2.SV/2.9/N2.SV.fullCI.2.9.gamess.inp to your run's scratch directory...
cp N2.SV/2.9/N2.SV.fullCI.2.9.gamess.inp ./N2.SV/2.9/N2.SV.fullCI.2.9.gamess.F05
unset echo
/work/pubchem/pm6/pkg/gamess_intel/ddikick.x /work/pubchem/pm6/pkg/gamess_intel/gamess.00.x N2.SV/2.9/N2.SV.fullCI.2.9.gamess -ddi 12 12 localhost localhost localhost localhost localhost localhost localhost localhost localhost localhost localhost localhost -scr .

 Distributed Data Interface kickoff program.
 Initiating 12 compute processes on 12 nodes to run the following command:
 /work/pubchem/pm6/pkg/gamess_intel/gamess.00.x N2.SV/2.9/N2.SV.fullCI.2.9.gamess 

          ******************************************************
          *         GAMESS VERSION =  5 DEC 2014 (R1)          *
          *             FROM IOWA STATE UNIVERSITY             *
          * M.W.SCHMIDT, K.K.BALDRIDGE, J.A.BOATZ, S.T.ELBERT, *
          *   M.S.GORDON, J.H.JENSEN, S.KOSEKI, N.MATSUNAGA,   *
          *          K.A.NGUYEN, S.J.SU, T.L.WINDUS,           *
          *       TOGETHER WITH M.DUPUIS, J.A.MONTGOMERY       *
          *         J.COMPUT.CHEM.  14, 1347-1363(1993)        *
          **************** 64 BIT INTEL VERSION ****************

  SINCE 1993, STUDENTS AND POSTDOCS WORKING AT IOWA STATE UNIVERSITY
  AND ALSO IN THEIR VARIOUS JOBS AFTER LEAVING ISU HAVE MADE IMPORTANT
  CONTRIBUTIONS TO THE CODE:
     IVANA ADAMOVIC, CHRISTINE AIKENS, YURI ALEXEEV, POOJA ARORA,
     ANDREY ASADCHEV, ROB BELL, PRADIPTA BANDYOPADHYAY, JONATHAN BENTZ,
     BRETT BODE, KURT BRORSEN, CALEB CARLIN, GALINA CHABAN, WEI CHEN,
     CHEOL HO CHOI, PAUL DAY, ALBERT DEFUSCO, NUWAN DESILVA, TIM DUDLEY,
     DMITRI FEDOROV, GRAHAM FLETCHER, MARK FREITAG, KURT GLAESEMANN,
     DAN KEMP, GRANT MERRILL, NORIYUKI MINEZAWA, JONATHAN MULLIN,
     TAKESHI NAGATA, SEAN NEDD, HEATHER NETZLOFF, BOSILJKA NJEGIC, RYAN OLSON,
     MIKE PAK, SPENCER PRUITT, LUKE ROSKOP, JIM SHOEMAKER, LYUDMILA SLIPCHENKO,
     TONY SMITH, SAROM SOK, JIE SONG, TETSUYA TAKETSUGU, SIMON WEBB,
     PENG XU, SOOHAENG YOO, FEDERICO ZAHARIEV

  ADDITIONAL CODE HAS BEEN PROVIDED BY COLLABORATORS IN OTHER GROUPS:
     IOWA STATE UNIVERSITY:
          JOE IVANIC, AARON WEST, LAIMUTIS BYTAUTAS, KLAUS RUEDENBERG
     UNIVERSITY OF TOKYO: KIMIHIKO HIRAO, TAKAHITO NAKAJIMA,
          TAKAO TSUNEDA, MUNEAKI KAMIYA, SUSUMU YANAGISAWA,
          KIYOSHI YAGI, MAHITO CHIBA, SEIKEN TOKURA, NAOAKI KAWAKAMI
     UNIVERSITY OF AARHUS: FRANK JENSEN
     UNIVERSITY OF IOWA: VISVALDAS KAIRYS, HUI LI
     NATIONAL INST. OF STANDARDS AND TECHNOLOGY: WALT STEVENS, DAVID GARMER
     UNIVERSITY OF PISA: BENEDETTA MENNUCCI, JACOPO TOMASI
     UNIVERSITY OF MEMPHIS: HENRY KURTZ, PRAKASHAN KORAMBATH
     UNIVERSITY OF ALBERTA: TOBY ZENG, MARIUSZ KLOBUKOWSKI
     UNIVERSITY OF NEW ENGLAND: MARK SPACKMAN
     MIE UNIVERSITY: HIROAKI UMEDA
     NAT. INST. OF ADVANCED INDUSTRIAL SCIENCE AND TECHNOLOGY: KAZUO KITAURA
     MICHIGAN STATE UNIVERSITY:
          KAROL KOWALSKI, MARTA WLOCH, JEFFREY GOUR, JESSE LUTZ,
          WEI LI, PIOTR PIECUCH
     UNIVERSITY OF SILESIA: MONIKA MUSIAL, STANISLAW KUCHARSKI
     FACULTES UNIVERSITAIRES NOTRE-DAME DE LA PAIX:
          OLIVIER QUINET, BENOIT CHAMPAGNE
     UNIVERSITY OF CALIFORNIA - SANTA BARBARA: BERNARD KIRTMAN
     INSTITUTE FOR MOLECULAR SCIENCE:
          KAZUYA ISHIMURA, MICHIO KATOUDA, AND SHIGERU NAGASE
     UNIVERSITY OF NOTRE DAME: ANNA POMOGAEVA, DAN CHIPMAN
     KYUSHU UNIVERSITY:
          HARUYUKI NAKANO,
          FENG LONG GU, JACEK KORCHOWIEC, MARCIN MAKOWSKI, AND YURIKO AOKI,
          HIROTOSHI MORI AND EISAKU MIYOSHI
     PENNSYLVANIA STATE UNIVERSITY:
          TZVETELIN IORDANOV, CHET SWALINA, JONATHAN SKONE,
          SHARON HAMMES-SCHIFFER
     WASEDA UNIVERSITY:
          MASATO KOBAYASHI, TOMOKO AKAMA, TSUGUKI TOUMA,
          TAKESHI YOSHIKAWA, YASUHIRO IKABATA, HIROMI NAKAI
     NANJING UNIVERSITY: SHUHUA LI
     UNIVERSITY OF NEBRASKA:
          PEIFENG SU, DEJUN SI, NANDUN THELLAMUREGE, YALI WANG, HUI LI
     UNIVERSITY OF ZURICH: ROBERTO PEVERATI, KIM BALDRIDGE
     N. COPERNICUS UNIVERSITY AND JACKSON STATE UNIVERSITY:
          MARIA BARYSZ
     UNIVERSITY OF COPENHAGEN: CASPER STEINMANN
     TOKYO INSTITUTE OF TECHNOLOGY: HIROYA NAKATA
     NAGOYA UNIVERSITY: YOSHIO NISHIMOTO, STEPHAN IRLE


 PARALLEL VERSION RUNNING ON       12 PROCESSORS IN       12 NODES.

 EXECUTION OF GAMESS BEGUN Thu Jan 17 18:18:32 2019

            ECHO OF THE FIRST FEW INPUT CARDS -
 INPUT CARD> $CONTRL SCFTYP=RHF CITYP=ALDET $END                                            
 INPUT CARD> $GUESS GUESS=HUCKEL $END                                                       
 INPUT CARD> $SYSTEM MWORDS=300 $END                                                        
 INPUT CARD> $CIDET SZ=0 GROUP=C2V NCORE=2 NACT=16 NELS=10 NSTGSS=6 $END                    
 INPUT CARD> $DATA                                                                          
 INPUT CARD>N2...HF...Double-zeta basis                                                     
 INPUT CARD>Cnv   2                                                                         
 INPUT CARD>                                                                                
 INPUT CARD>N     7.0    0.0      0.0     0.0                                               
 INPUT CARD>S   7                                                                           
 INPUT CARD>  1   5909.0000000              0.0011900                                       
 INPUT CARD>  2    887.5000000              0.0090990                                       
 INPUT CARD>  3    204.7000000              0.0441450                                       
 INPUT CARD>  4     59.8400000              0.1504640                                       
 INPUT CARD>  5     20.0000000              0.3567410                                       
 INPUT CARD>  6      7.1930000              0.4465330                                       
 INPUT CARD>  7      2.6860000              0.1456030                                       
 INPUT CARD>S   2                                                                           
 INPUT CARD>  1      7.1930000             -0.1604050                                       
 INPUT CARD>  2      0.7000000              1.0582150                                       
 INPUT CARD>S   1                                                                           
 INPUT CARD>  1      0.2133000              1.0000000                                       
 INPUT CARD>P   4                                                                           
 INPUT CARD>  1     26.7900000              0.0182540                                       
 INPUT CARD>  2      5.9560000              0.1164610                                       
 INPUT CARD>  3      1.7070000              0.3901780                                       
 INPUT CARD>  4      0.5314000              0.6371020                                       
 INPUT CARD>P   1                                                                           
 INPUT CARD>  1      0.1654000              1.0000000                                       
 INPUT CARD>                                                                                
 INPUT CARD>N     7.0    0.0      0.0     2.9                                               
 INPUT CARD>S   7                                                                           
 INPUT CARD>  1   5909.0000000              0.0011900                                       
 INPUT CARD>  2    887.5000000              0.0090990                                       
 INPUT CARD>  3    204.7000000              0.0441450                                       
 INPUT CARD>  4     59.8400000              0.1504640                                       
 INPUT CARD>  5     20.0000000              0.3567410                                       
 INPUT CARD>  6      7.1930000              0.4465330                                       
 INPUT CARD>  7      2.6860000              0.1456030                                       
 INPUT CARD>S   2                                                                           
 INPUT CARD>  1      7.1930000             -0.1604050                                       
 INPUT CARD>  2      0.7000000              1.0582150                                       
 INPUT CARD>S   1                                                                           
 INPUT CARD>  1      0.2133000              1.0000000                                       
 INPUT CARD>P   4                                                                           
 INPUT CARD>  1     26.7900000              0.0182540                                       
 INPUT CARD>  2      5.9560000              0.1164610                                       
 INPUT CARD>  3      1.7070000              0.3901780                                       
 INPUT CARD>  4      0.5314000              0.6371020                                       
 INPUT CARD>P   1                                                                           
  300000000 WORDS OF MEMORY AVAILABLE


     RUN TITLE
     ---------
 N2...HF...Double-zeta basis                                                     

 THE POINT GROUP OF THE MOLECULE IS CNV     
 THE ORDER OF THE PRINCIPAL AXIS IS     2

 ATOM      ATOMIC                      COORDINATES (BOHR)
           CHARGE         X                   Y                   Z
 N           7.0     0.0000000000        0.0000000000        0.0000000000
 N           7.0     0.0000000000        0.0000000000        5.4802053644

          INTERNUCLEAR DISTANCES (ANGS.)
          ------------------------------

                1 N          2 N     

   1 N       0.0000000    2.9000000 *
   2 N       2.9000000 *  0.0000000  

  * ... LESS THAN  3.000


     ATOMIC BASIS SET
     ----------------
 THE CONTRACTED PRIMITIVE FUNCTIONS HAVE BEEN UNNORMALIZED
 THE CONTRACTED BASIS FUNCTIONS ARE NOW NORMALIZED TO UNITY

  SHELL TYPE  PRIMITIVE        EXPONENT          CONTRACTION COEFFICIENT(S)

 N         

      1   S       1          5909.0000000    0.001189999548
      1   S       2           887.5000000    0.009098996542
      1   S       3           204.7000000    0.044144983225
      1   S       4            59.8400000    0.150463942825
      1   S       5            20.0000000    0.356740864442
      1   S       6             7.1930000    0.446532830321
      1   S       7             2.6860000    0.145602944672

      2   S       8             7.1930000   -0.160405033446
      2   S       9             0.7000000    1.058215220651

      3   S      10             0.2133000    1.000000000000

      4   P      11            26.7900000    0.018253998243
      4   P      12             5.9560000    0.116460988791
      4   P      13             1.7070000    0.390177962446
      4   P      14             0.5314000    0.637101938680

      5   P      15             0.1654000    1.000000000000

 N         

      6   S      16          5909.0000000    0.001189999548
      6   S      17           887.5000000    0.009098996542
      6   S      18           204.7000000    0.044144983225
      6   S      19            59.8400000    0.150463942825
      6   S      20            20.0000000    0.356740864442
      6   S      21             7.1930000    0.446532830321
      6   S      22             2.6860000    0.145602944672

      7   S      23             7.1930000   -0.160405033446
      7   S      24             0.7000000    1.058215220651

      8   S      25             0.2133000    1.000000000000

      9   P      26            26.7900000    0.018253998243
      9   P      27             5.9560000    0.116460988791
      9   P      28             1.7070000    0.390177962446
      9   P      29             0.5314000    0.637101938680

     10   P      30             0.1654000    1.000000000000

 TOTAL NUMBER OF BASIS SET SHELLS             =   10
 NUMBER OF CARTESIAN GAUSSIAN BASIS FUNCTIONS =   18
 NUMBER OF ELECTRONS                          =   14
 CHARGE OF MOLECULE                           =    0
 SPIN MULTIPLICITY                            =    1
 NUMBER OF OCCUPIED ORBITALS (ALPHA)          =    7
 NUMBER OF OCCUPIED ORBITALS (BETA )          =    7
 TOTAL NUMBER OF ATOMS                        =    2
 THE NUCLEAR REPULSION ENERGY IS        8.9412707630

 THIS MOLECULE IS RECOGNIZED AS BEING LINEAR,
 ORBITAL LZ DEGENERACY TOLERANCE ETOLLZ= 1.00E-06

     $CONTRL OPTIONS
     ---------------
 SCFTYP=RHF          RUNTYP=ENERGY       EXETYP=RUN     
 MPLEVL=       0     CITYP =ALDET        CCTYP =NONE         VBTYP =NONE    
 DFTTYP=NONE         TDDFT =NONE    
 MULT  =       1     ICHARG=       0     NZVAR =       0     COORD =UNIQUE  
 PP    =NONE         RELWFN=NONE         LOCAL =NONE         NUMGRD=       F
 ISPHER=      -1     NOSYM =       0     MAXIT =      30     UNITS =ANGS    
 PLTORB=       F     MOLPLT=       F     AIMPAC=       F     FRIEND=        
 NPRINT=       7     IREST =       0     GEOM  =INPUT   
 NORMF =       0     NORMP =       0     ITOL  =      20     ICUT  =       9
 INTTYP=BEST         GRDTYP=BEST         QMTTOL= 1.0E-06

     $SYSTEM OPTIONS
     ---------------
  REPLICATED MEMORY=   300000000 WORDS (ON EVERY NODE).
 DISTRIBUTED MEMDDI=           0 MILLION WORDS IN AGGREGATE,
 MEMDDI DISTRIBUTED OVER  12 PROCESSORS IS           0 WORDS/PROCESSOR.
 TOTAL MEMORY REQUESTED ON EACH PROCESSOR=   300000000 WORDS.
 TIMLIM=      525600.00 MINUTES, OR     365.0 DAYS.
 PARALL= T  BALTYP=  DLB     KDIAG=    0  COREFL= F
 MXSEQ2=     300 MXSEQ3=     150  mem10=         0

          ----------------
          PROPERTIES INPUT
          ----------------

     MOMENTS            FIELD           POTENTIAL          DENSITY
 IEMOM =       1   IEFLD =       0   IEPOT =       0   IEDEN =       0
 WHERE =COMASS     WHERE =NUCLEI     WHERE =NUCLEI     WHERE =NUCLEI  
 OUTPUT=BOTH       OUTPUT=BOTH       OUTPUT=BOTH       OUTPUT=BOTH    
 IEMINT=       0   IEFINT=       0                     IEDINT=       0
                                                       MORB  =       0
          EXTRAPOLATION IN EFFECT
          SOSCF IN EFFECT
 ORBITAL PRINTING OPTION: NPREO=     1    18     2     1

     -------------------------------
     INTEGRAL TRANSFORMATION OPTIONS
     -------------------------------
     NWORD  =            0
     CUTOFF = 1.0E-09     MPTRAN =       0
     DIRTRF =       F     AOINTS =DUP     

          ----------------------
          INTEGRAL INPUT OPTIONS
          ----------------------
 NOPK  =       1 NORDER=       0 SCHWRZ=       F

     ------------------------------------------
     THE POINT GROUP IS CNV, NAXIS= 2, ORDER= 4
     ------------------------------------------

     DIMENSIONS OF THE SYMMETRY SUBSPACES ARE
 A1  =   10     A2  =    0     B1  =    4     B2  =    4

 ..... DONE SETTING UP THE RUN .....
 CPU     0: STEP CPU TIME=     0.02 TOTAL CPU TIME=        0.0 (    0.0 MIN)
 TOTAL WALL CLOCK TIME=        0.0 SECONDS, CPU UTILIZATION IS 100.00%

          ********************
          1 ELECTRON INTEGRALS
          ********************
 ...... END OF ONE-ELECTRON INTEGRALS ......
 CPU     0: STEP CPU TIME=     0.01 TOTAL CPU TIME=        0.0 (    0.0 MIN)
 TOTAL WALL CLOCK TIME=        0.1 SECONDS, CPU UTILIZATION IS  50.00%

          -------------
          GUESS OPTIONS
          -------------
          GUESS =HUCKEL            NORB  =       0          NORDER=       0
          MIX   =       F          PRTMO =       F          PUNMO =       F
          TOLZ  = 1.0E-08          TOLE  = 1.0E-05
          SYMDEN=       F          PURIFY=       F

 INITIAL GUESS ORBITALS GENERATED BY HUCKEL   ROUTINE.
 HUCKEL GUESS REQUIRES      4352 WORDS.

 SYMMETRIES FOR INITIAL GUESS ORBITALS FOLLOW.   BOTH SET(S).
     7 ORBITALS ARE OCCUPIED (    2 CORE ORBITALS).
     3=A1       4=A1       5=A1       6=B1       7=B2       8=B1       9=B2  
    10=A1      11=A1      12=A1      13=A1      14=A1      15=B1      16=B1  
    17=B2  
 ...... END OF INITIAL ORBITAL SELECTION ......
 CPU     0: STEP CPU TIME=     0.00 TOTAL CPU TIME=        0.0 (    0.0 MIN)
 TOTAL WALL CLOCK TIME=        0.1 SECONDS, CPU UTILIZATION IS  50.00%

                    ----------------------
                    AO INTEGRAL TECHNOLOGY
                    ----------------------
     S,P,L SHELL ROTATED AXIS INTEGRALS, REPROGRAMMED BY
        KAZUYA ISHIMURA (IMS) AND JOSE SIERRA (SYNSTAR).
     S,P,D,L SHELL ROTATED AXIS INTEGRALS PROGRAMMED BY
        KAZUYA ISHIMURA (INSTITUTE FOR MOLECULAR SCIENCE).
     S,P,D,F,G SHELL TO TOTAL QUARTET ANGULAR MOMENTUM SUM 5,
        ERIC PROGRAM BY GRAHAM FLETCHER (ELORET AND NASA ADVANCED
        SUPERCOMPUTING DIVISION, AMES RESEARCH CENTER).
     S,P,D,F,G,L SHELL GENERAL RYS QUADRATURE PROGRAMMED BY
        MICHEL DUPUIS (PACIFIC NORTHWEST NATIONAL LABORATORY).

          --------------------
          2 ELECTRON INTEGRALS
          --------------------

 THE -PK- OPTION IS OFF, THE INTEGRALS ARE NOT IN SUPERMATRIX FORM.
 STORING   15000 INTEGRALS/RECORD ON DISK, USING 12 BYTES/INTEGRAL.
 TWO ELECTRON INTEGRAL EVALUATION REQUIRES   89411 WORDS OF MEMORY.
 II,JST,KST,LST =  1  1  1  1 NREC =         1 INTLOC =    1
 II,JST,KST,LST =  2  1  1  1 NREC =         1 INTLOC =    2
 II,JST,KST,LST =  3  1  1  1 NREC =         1 INTLOC =    7
 II,JST,KST,LST =  4  1  1  1 NREC =         1 INTLOC =   22
 II,JST,KST,LST =  5  1  1  1 NREC =         1 INTLOC =   22
 II,JST,KST,LST =  6  1  1  1 NREC =         1 INTLOC =   82
 II,JST,KST,LST =  7  1  1  1 NREC =         1 INTLOC =   82
 II,JST,KST,LST =  8  1  1  1 NREC =         1 INTLOC =  120
 II,JST,KST,LST =  9  1  1  1 NREC =         1 INTLOC =  222
 II,JST,KST,LST = 10  1  1  1 NREC =         1 INTLOC =  319
 TOTAL NUMBER OF NONZERO TWO-ELECTRON INTEGRALS =                4023
         12 INTEGRAL RECORDS WERE STORED ON DISK FILE  8.
  ...... END OF TWO-ELECTRON INTEGRALS .....
 CPU     0: STEP CPU TIME=     0.01 TOTAL CPU TIME=        0.0 (    0.0 MIN)
 TOTAL WALL CLOCK TIME=        0.1 SECONDS, CPU UTILIZATION IS  50.00%

          --------------------------
                 RHF SCF CALCULATION
          --------------------------

     NUCLEAR ENERGY =         8.9412707630
     MAXIT =   30     NPUNCH=    2
     EXTRAP=T  DAMP=F  SHIFT=F  RSTRCT=F  DIIS=F  DEM=F  SOSCF=T
     DENSITY MATRIX CONV=  1.00E-06
     SOSCF WILL OPTIMIZE      77 ORBITAL ROTATIONS, SOGTOL=   0.250
     MEMORY REQUIRED FOR RHF ITERS=     32828 WORDS.

 ITER EX DEM     TOTAL ENERGY        E CHANGE  DENSITY CHANGE     ORB. GRAD
   1  0  0     -107.8328423619  -107.8328423619   0.251458467   0.000000000
          ---------------START SECOND ORDER SCF---------------
   2  1  0     -108.0225646264    -0.1897222645   0.114484665   0.056912689
   3  2  0     -108.0359095759    -0.0133449495   0.019939981   0.019634594
   4  3  0     -108.0379049856    -0.0019954098   0.003215616   0.001440118
   5  4  0     -108.0379188659    -0.0000138803   0.000984711   0.000370922
   6  5  0     -108.0379194779    -0.0000006120   0.000028729   0.000018048
   7  6  0     -108.0379194816    -0.0000000037   0.000009978   0.000005061
   8  7  0     -108.0379194820    -0.0000000003   0.000000969   0.000000527
   9  8  0     -108.0379194820    -0.0000000000   0.000000077   0.000000049

          -----------------
          DENSITY CONVERGED
          -----------------
     TIME TO FORM FOCK OPERATORS=       0.0 SECONDS (       0.0 SEC/ITER)
     TIME TO SOLVE SCF EQUATIONS=       0.0 SECONDS (       0.0 SEC/ITER)

 FINAL RHF ENERGY IS     -108.0379194820 AFTER   9 ITERATIONS

 LZ VALUE ANALYSIS FOR THE MOS
 ----------------------------------------
 MO     1 (    1) HAS LZ(WEIGHT)= 0.00(100.0%) 
 MO     2 (    2) HAS LZ(WEIGHT)= 0.00(100.0%) 
 MO     3 (    3) HAS LZ(WEIGHT)= 0.00(100.0%) 
 MO     4 (    4) HAS LZ(WEIGHT)= 0.00(100.0%) 
 MO     5 (    5) HAS LZ(WEIGHT)= 0.00(100.0%) 
 MO     6 (    6) HAS LZ(WEIGHT)=-1.00( 50.0%)  1.00( 50.0%) 
 MO     7 (    6) HAS LZ(WEIGHT)=-1.00( 50.0%)  1.00( 50.0%) 
 MO     8 (    7) HAS LZ(WEIGHT)=-1.00( 50.0%)  1.00( 50.0%) 
 MO     9 (    7) HAS LZ(WEIGHT)=-1.00( 50.0%)  1.00( 50.0%) 
 MO    10 (    8) HAS LZ(WEIGHT)= 0.00(100.0%) 
 MO    11 (    9) HAS LZ(WEIGHT)=-1.00( 50.0%)  1.00( 50.0%) 
 MO    12 (    9) HAS LZ(WEIGHT)=-1.00( 50.0%)  1.00( 50.0%) 
 MO    13 (   10) HAS LZ(WEIGHT)= 0.00(100.0%) 
 MO    14 (   11) HAS LZ(WEIGHT)=-1.00( 50.0%)  1.00( 50.0%) 
 MO    15 (   11) HAS LZ(WEIGHT)=-1.00( 50.0%)  1.00( 50.0%) 
 MO    16 (   12) HAS LZ(WEIGHT)= 0.00(100.0%) 
 MO    17 (   13) HAS LZ(WEIGHT)= 0.00(100.0%) 
 MO    18 (   14) HAS LZ(WEIGHT)= 0.00(100.0%) 

          ------------
          EIGENVECTORS
          ------------

                      1          2          3          4          5
                  -15.8419   -15.8418    -1.0496    -1.0226    -0.3833
                     A1         A1         A1         A1         A1  
    1  N  1  S    0.706990  -0.707000  -0.172130  -0.174550   0.010710
    2  N  1  S   -0.000211   0.000233   0.406630   0.419284  -0.043809
    3  N  1  S    0.000950  -0.000927   0.355714   0.352554  -0.004895
    4  N  1  X    0.000000   0.000000   0.000000   0.000000   0.000000
    5  N  1  Y    0.000000   0.000000   0.000000   0.000000   0.000000
    6  N  1  Z    0.000285  -0.000177   0.006110  -0.023549   0.482111
    7  N  1  X    0.000000   0.000000   0.000000   0.000000   0.000000
    8  N  1  Y    0.000000   0.000000   0.000000   0.000000   0.000000
    9  N  1  Z   -0.000099   0.000059   0.007449  -0.010626   0.280271
   10  N  2  S    0.706990   0.707000  -0.172130   0.174550   0.010710
   11  N  2  S   -0.000211  -0.000233   0.406630  -0.419284  -0.043809
   12  N  2  S    0.000950   0.000927   0.355714  -0.352554  -0.004895
   13  N  2  X    0.000000   0.000000   0.000000   0.000000   0.000000
   14  N  2  Y    0.000000   0.000000   0.000000   0.000000   0.000000
   15  N  2  Z   -0.000285  -0.000177  -0.006110  -0.023549  -0.482111
   16  N  2  X    0.000000   0.000000   0.000000   0.000000   0.000000
   17  N  2  Y    0.000000   0.000000   0.000000   0.000000   0.000000
   18  N  2  Z    0.000099   0.000059  -0.007449  -0.010626  -0.280271

                      6          7          8          9         10
                   -0.3547    -0.3547    -0.1652    -0.1652    -0.1248
                     B1         B2         B1         B2         A1  
    1  N  1  S    0.000000   0.000000   0.000000   0.000000  -0.015021
    2  N  1  S    0.000000   0.000000   0.000000   0.000000   0.045146
    3  N  1  S    0.000000   0.000000   0.000000   0.000000   0.026109
    4  N  1  X    0.501853   0.000000  -0.515026   0.000000   0.000000
    5  N  1  Y    0.000000   0.501853   0.000000  -0.515026   0.000000
    6  N  1  Z    0.000000   0.000000   0.000000   0.000000   0.530779
    7  N  1  X    0.290308   0.000000  -0.293150   0.000000   0.000000
    8  N  1  Y    0.000000   0.290308   0.000000  -0.293150   0.000000
    9  N  1  Z    0.000000   0.000000   0.000000   0.000000   0.315157
   10  N  2  S    0.000000   0.000000   0.000000   0.000000   0.015021
   11  N  2  S    0.000000   0.000000   0.000000   0.000000  -0.045146
   12  N  2  S    0.000000   0.000000   0.000000   0.000000  -0.026109
   13  N  2  X    0.501853   0.000000   0.515026   0.000000   0.000000
   14  N  2  Y    0.000000   0.501853   0.000000   0.515026   0.000000
   15  N  2  Z    0.000000   0.000000   0.000000   0.000000   0.530779
   16  N  2  X    0.290308   0.000000   0.293150   0.000000   0.000000
   17  N  2  Y    0.000000   0.290308   0.000000   0.293150   0.000000
   18  N  2  Z    0.000000   0.000000   0.000000   0.000000   0.315157

                     11         12         13         14         15
                    0.6024     0.6024     0.6244     0.6827     0.6827
                     B1         B2         A1         B1         B2  
    1  N  1  S    0.000000   0.000000  -0.028552   0.000000   0.000000
    2  N  1  S    0.000000   0.000000   0.230675   0.000000   0.000000
    3  N  1  S    0.000000   0.000000  -0.158169   0.000000   0.000000
    4  N  1  X   -0.656038   0.000000   0.000000   0.663606   0.000000
    5  N  1  Y    0.000000  -0.656038   0.000000   0.000000   0.663606
    6  N  1  Z    0.000000   0.000000   0.654889   0.000000   0.000000
    7  N  1  X    0.738589   0.000000   0.000000  -0.826929   0.000000
    8  N  1  Y    0.000000   0.738589   0.000000   0.000000  -0.826929
    9  N  1  Z    0.000000   0.000000  -0.633013   0.000000   0.000000
   10  N  2  S    0.000000   0.000000  -0.028552   0.000000   0.000000
   11  N  2  S    0.000000   0.000000   0.230675   0.000000   0.000000
   12  N  2  S    0.000000   0.000000  -0.158169   0.000000   0.000000
   13  N  2  X   -0.656038   0.000000   0.000000  -0.663606   0.000000
   14  N  2  Y    0.000000  -0.656038   0.000000   0.000000  -0.663606
   15  N  2  Z    0.000000   0.000000  -0.654889   0.000000   0.000000
   16  N  2  X    0.738589   0.000000   0.000000   0.826929   0.000000
   17  N  2  Y    0.000000   0.738589   0.000000   0.000000   0.826929
   18  N  2  Z    0.000000   0.000000   0.633013   0.000000   0.000000

                     16         17         18
                    0.6957     0.8618     1.0998
                     A1         A1         A1  
    1  N  1  S   -0.044483  -0.088235   0.075186
    2  N  1  S    0.422491   1.067822  -1.075756
    3  N  1  S   -0.340608  -1.062721   1.161749
    4  N  1  X    0.000000   0.000000   0.000000
    5  N  1  Y    0.000000   0.000000   0.000000
    6  N  1  Z   -0.603108  -0.159243  -0.309307
    7  N  1  X    0.000000   0.000000   0.000000
    8  N  1  Y    0.000000   0.000000   0.000000
    9  N  1  Z    0.866543   0.226098   0.571532
   10  N  2  S    0.044483  -0.088235  -0.075186
   11  N  2  S   -0.422491   1.067822   1.075756
   12  N  2  S    0.340608  -1.062721  -1.161749
   13  N  2  X    0.000000   0.000000   0.000000
   14  N  2  Y    0.000000   0.000000   0.000000
   15  N  2  Z   -0.603108   0.159243  -0.309307
   16  N  2  X    0.000000   0.000000   0.000000
   17  N  2  Y    0.000000   0.000000   0.000000
   18  N  2  Z    0.866543  -0.226098   0.571532
 ...... END OF RHF CALCULATION ......
 CPU     0: STEP CPU TIME=     0.01 TOTAL CPU TIME=        0.0 (    0.0 MIN)
 TOTAL WALL CLOCK TIME=        0.1 SECONDS, CPU UTILIZATION IS  55.56%

     ----------------------------------------------------------------
     PROPERTY VALUES FOR THE RHF   SELF-CONSISTENT FIELD WAVEFUNCTION
     ----------------------------------------------------------------

          -----------------
          ENERGY COMPONENTS
          -----------------

         WAVEFUNCTION NORMALIZATION =       1.0000000000

                ONE ELECTRON ENERGY =    -164.2612049993
                TWO ELECTRON ENERGY =      47.2820147544
           NUCLEAR REPULSION ENERGY =       8.9412707630
                                      ------------------
                       TOTAL ENERGY =    -108.0379194820

 ELECTRON-ELECTRON POTENTIAL ENERGY =      47.2820147544
  NUCLEUS-ELECTRON POTENTIAL ENERGY =    -271.5587143087
   NUCLEUS-NUCLEUS POTENTIAL ENERGY =       8.9412707630
                                      ------------------
             TOTAL POTENTIAL ENERGY =    -215.3354287914
               TOTAL KINETIC ENERGY =     107.2975093094
                 VIRIAL RATIO (V/T) =       2.0069005346

  ...... PI ENERGY ANALYSIS ......

 ENERGY ANALYSIS:
            FOCK ENERGY=    -69.6971751022
          BARE H ENERGY=   -164.2612049993
     ELECTRONIC ENERGY =   -116.9791900508
         KINETIC ENERGY=    107.2975093094
          N-N REPULSION=      8.9412707630
           TOTAL ENERGY=   -108.0379192877
        SIGMA PART(1+2)=   -104.6482011790
               (K,V1,2)=    100.9398234724   -241.9579669023     36.3699422509
           PI PART(1+2)=    -12.3309888717
               (K,V1,2)=      6.3576858370    -29.6007474064     10.9120726977
  SIGMA SKELETON, ERROR=    -95.7069304160     -0.0000000000
             MIXED PART= 0.00000E+00 0.00000E+00 0.00000E+00 0.00000E+00
 ...... END OF PI ENERGY ANALYSIS ......

          ---------------------------------------
          MULLIKEN AND LOWDIN POPULATION ANALYSES
          ---------------------------------------

               ----- POPULATIONS IN EACH AO -----
                             MULLIKEN      LOWDIN
              1  N  1  S      2.00013     1.99711
              2  N  1  S      1.07401     1.04068
              3  N  1  S      0.92356     0.95613
              4  N  1  X      0.66058     0.63210
              5  N  1  Y      0.66058     0.63210
              6  N  1  Z      0.62954     0.59122
              7  N  1  X      0.33942     0.36790
              8  N  1  Y      0.33942     0.36790
              9  N  1  Z      0.37276     0.41486
             10  N  2  S      2.00013     1.99711
             11  N  2  S      1.07401     1.04068
             12  N  2  S      0.92356     0.95613
             13  N  2  X      0.66058     0.63210
             14  N  2  Y      0.66058     0.63210
             15  N  2  Z      0.62954     0.59122
             16  N  2  X      0.33942     0.36790
             17  N  2  Y      0.33942     0.36790
             18  N  2  Z      0.37276     0.41486

          ----- MULLIKEN ATOMIC OVERLAP POPULATIONS -----
          (OFF-DIAGONAL ELEMENTS NEED TO BE MULTIPLIED BY 2)

             1           2

    1    6.8647107
    2    0.1352893   6.8647107

          TOTAL MULLIKEN AND LOWDIN ATOMIC POPULATIONS
       ATOM         MULL.POP.    CHARGE          LOW.POP.     CHARGE
    1 N             7.000000   -0.000000         7.000000   -0.000000
    2 N             7.000000    0.000000         7.000000    0.000000

          ---------------------
          ELECTROSTATIC MOMENTS
          ---------------------

 POINT   1           X           Y           Z (BOHR)    CHARGE
                 0.000000    0.000000    2.740103       -0.00 (A.U.)
         DX          DY          DZ         /D/  (DEBYE)
     0.000000    0.000000    0.000000    0.000000
 ...... END OF PROPERTY EVALUATION ......
 CPU     0: STEP CPU TIME=     0.01 TOTAL CPU TIME=        0.1 (    0.0 MIN)
 TOTAL WALL CLOCK TIME=        0.1 SECONDS, CPU UTILIZATION IS  42.86%

 DETERMINANT CI OPTIONS   NRNFG   NPFLG
 INTEGRAL TRANSFORMATION    1       0
 DIAGONALIZE HAMILTONIAN    1       0
 FORM 1E- DENSITY MATRIX    1       0
 FORM 2E- DENSITY MATRIX    0       0

     --------------------------------------------------
          AMES LABORATORY DETERMINANTAL FULL CI
     PROGRAM WRITTEN BY JOE IVANIC AND KLAUS RUEDENBERG
     --------------------------------------------------

 THE POINT GROUP                  =   C2V     
 THE STATE SYMMETRY               =   A1      
 NUMBER OF CORE ORBITALS          =    2
 NUMBER OF ACTIVE ORBITALS        =   16
 NUMBER OF ALPHA ELECTRONS        =    7 (   5 ACTIVE)
 NUMBER OF BETA ELECTRONS         =    7 (   5 ACTIVE)
 NUMBER OF OCCUPIED ORBITALS      =   18
 NUMBER OF CI STATES REQUESTED    =    1
 NUMBER OF CI STARTING VECTORS    =    6
 MAX. NO. OF CI EXPANSION VECTORS =   12
 SIZE OF INITIAL CI GUESS MATRIX  =  300
 MAX. NO. OF CI ITERS/STATE       =  100
 CI DIAGONALIZATION CRITERION     = 1.00E-06
 CI PROPERTIES WILL BE FOUND FOR ROOT NUMBER   1
 1E- DENSITY MATRIX OPTIONS ARE 1

 CORRELATION ENERGY ANALYSIS      =    F

 SYMMETRIES FOR THE   2 CORE,  16 ACTIVE ARE

     CORE= A1    A1  

   ACTIVE= A1    A1    A1    B1    B2    B1    B2    A1    B1    B2  
           A1    B1    B2    A1    A1    A1  

     --------------------------------------------
     PARTIAL TWO ELECTRON INTEGRAL TRANSFORMATION
     --------------------------------------------

 NUMBER OF CORE MOLECULAR ORBITALS     =    2
 NUMBER OF OCCUPIED MOLECULAR ORBITALS =   18
 TOTAL NUMBER OF MOLECULAR ORBITALS    =   18
 TOTAL NUMBER OF ATOMIC ORBITALS       =   18
 THRESHOLD FOR KEEPING TRANSFORMED 2E- INTEGRALS = 1.000E-09

 -------------------------------     ------------------------------
 DISTRIBUTED DATA TRANSFORMATION     PROGRAM WRITTEN BY G. FLETCHER
 -------------------------------     ------------------------------

 THE DISTRIBUTED MEMORY REQUIRED FOR THIS STEP IS MEMDDI=         1 MWORDS
 CREATING DISTRIBUTED STORAGE FOR [OCC OCC|OCC OCC] INTEGRALS
 DDI: Creating Array [0] - 171 x 171 = 29241 words.
 CREATING WORKSPACE OF SIZE VVOO
 DDI: Creating Array [1] - 171 x 171 = 29241 words.
 FOR   12 PROCESSORS, THE REPLICATED MEMORY NEEDED IS       58507 WORDS.

      DIRECT 4-INDEX TRANSFORMATION 
      SCHWARZ INEQUALITY TEST SKIPPED          0 INTEGRAL BLOCKS
 ----- FROZEN CORE ENERGY =       -93.8436735318
 ... END OF INTEGRAL TRANSFORMATION ...
 CPU     0: STEP CPU TIME=     0.00 TOTAL CPU TIME=        0.1 (    0.0 MIN)
 TOTAL WALL CLOCK TIME=        0.2 SECONDS, CPU UTILIZATION IS  33.33%

     --------------------------------------------------
          AMES LABORATORY DETERMINANTAL FULL CI
     PROGRAM WRITTEN BY JOE IVANIC AND KLAUS RUEDENBERG
     --------------------------------------------------

 THE NUMBER OF DETERMINANTS HAVING SPACE SYMMETRY A1 
 IN POINT GROUP C2V  WITH SZ=  0.0 IS        4777056
 THE DETERMINANT FULL CI REQUIRES       119865995 WORDS
 INITIAL CI VECTOR GUESS TIME  :          1.4
 INITIAL FULL CI ITERATION TIME:          6.0

 ITERATION      ENERGY           GRADIENT
     0     -108.7438503973     0.45497701
     1     -108.8424344181     0.18303179
     2     -108.8543227094     0.06986831
     3     -108.8558600027     0.03286195
     4     -108.8562406449     0.01604879
     5     -108.8563163410     0.00642093
     6     -108.8563257896     0.00356087
     7     -108.8563276767     0.00205237
     8     -108.8563290691     0.00151633
     9     -108.8563298778     0.00118039
    10     -108.8563302800     0.00100119
    11     -108.8563305646     0.00088751
    12     -108.8563309544     0.00098285
    13     -108.8563313758     0.00109891
    14     -108.8563323693     0.00192847
    15     -108.8563349054     0.00327502
    16     -108.8563678216     0.02054173
    17     -108.8572642642     0.04173233
    18     -108.8575971428     0.03068344
    19     -108.8577515447     0.02025191
    20     -108.8578764975     0.01363597
    21     -108.8579318255     0.00956398
    22     -108.8579566170     0.00641102
    23     -108.8579680556     0.00397651
    24     -108.8579735218     0.00318619
    25     -108.8579757449     0.00189913
    26     -108.8579770362     0.00156287
    27     -108.8579778243     0.00122798
    28     -108.8579781706     0.00076575
    29     -108.8579783131     0.00039058
    30     -108.8579783430     0.00030156
    31     -108.8579783582     0.00020240
    32     -108.8579783727     0.00013641
    33     -108.8579783776     0.00009269
    34     -108.8579783796     0.00005298
    35     -108.8579783804     0.00003337
    36     -108.8579783808     0.00002860
    37     -108.8579783809     0.00001724
    38     -108.8579783810     0.00001425
    39     -108.8579783811     0.00001112
    40     -108.8579783811     0.00000717
    41     -108.8579783811     0.00000401
    42     -108.8579783812     0.00000348
    43     -108.8579783812     0.00000219
    44     -108.8579783812     0.00000151
    45     -108.8579783812     0.00000111
    46     -108.8579783812     0.00000065

 CONVERGED STATE    1 ENERGY=     -108.8579783812 IN   46 ITERS

 ALL STATES CONVERGED.

 CI EIGENVECTORS WILL BE LABELED IN GROUP=C2V     
 PRINTING CI COEFFICIENTS LARGER THAN  0.050000

 STATE   1  ENERGY=      -108.8579783812  S=  0.00  SZ=  0.00  SPACE SYM=A1  

      ALPHA       |      BETA        | COEFFICIENT
------------------|------------------|------------
 1111100000000000 | 1111100000000000 |   0.2891016
 1111001000000000 | 1111001000000000 |  -0.2715977
 1110110000000000 | 1110110000000000 |  -0.2715977
 1110011000000000 | 1110011000000000 |   0.2558008
 1101100100000000 | 1101100100000000 |  -0.2216019
 1101001100000000 | 1101001100000000 |   0.2108817
 1100110100000000 | 1100110100000000 |   0.2108817
 1100011100000000 | 1100011100000000 |  -0.2012671
 1110101000000000 | 1111010000000000 |  -0.1807374
 1111010000000000 | 1110101000000000 |  -0.1807374
 1110100100000000 | 1101110000000000 |   0.1594484
 1101110000000000 | 1110100100000000 |   0.1594484
 1101101000000000 | 1111000100000000 |   0.1594484
 1111000100000000 | 1101101000000000 |   0.1594484
 1110001100000000 | 1101011000000000 |   0.1508910
 1101011000000000 | 1110001100000000 |   0.1508910
 1100111000000000 | 1110010100000000 |   0.1508910
 1110010100000000 | 1100111000000000 |   0.1508910
 1100101100000000 | 1101010100000000 |   0.1403194
 1101010100000000 | 1100101100000000 |   0.1403194
 1111001000000000 | 1110110000000000 |  -0.0907717
 1110110000000000 | 1111001000000000 |  -0.0907717
 1111100000000000 | 1110011000000000 |  -0.0899656
 1110011000000000 | 1111100000000000 |  -0.0899656
 1111001000000000 | 1101100100000000 |   0.0813815
 1101100100000000 | 1111001000000000 |   0.0813815
 1101100100000000 | 1110110000000000 |   0.0813815
 1110110000000000 | 1101100100000000 |   0.0813815
 1111100000000000 | 1101001100000000 |  -0.0780669
 1101001100000000 | 1111100000000000 |  -0.0780669
 1100110100000000 | 1111100000000000 |  -0.0780669
 1111100000000000 | 1100110100000000 |  -0.0780669
 1110011000000000 | 1100110100000000 |   0.0770513
 1100110100000000 | 1110011000000000 |   0.0770513
 1101001100000000 | 1110011000000000 |   0.0770513
 1110011000000000 | 1101001100000000 |   0.0770513
 1110110000000000 | 1100011100000000 |  -0.0738397
 1100011100000000 | 1110110000000000 |  -0.0738397
 1100011100000000 | 1111001000000000 |  -0.0738397
 1111001000000000 | 1100011100000000 |  -0.0738397
 1101001100000000 | 1100110100000000 |   0.0705000
 1100110100000000 | 1101001100000000 |   0.0705000
 1101100100000000 | 1100011100000000 |   0.0698193
 1100011100000000 | 1101100100000000 |   0.0698193
 ..... DONE WITH DETERMINANT CI COMPUTATION .....
 CPU     0: STEP CPU TIME=   122.51 TOTAL CPU TIME=      122.6 (    2.0 MIN)
 TOTAL WALL CLOCK TIME=      160.0 SECONDS, CPU UTILIZATION IS  76.63%

     ---------------------------
     ONE PARTICLE DENSITY MATRIX
     ---------------------------

 DENSITY MATRIX WILL BE SAVED FOR   1-TH STATE WITH S= 0.00

 CI EIGENSTATE   1 TOTAL ENERGY =     -108.8579783812

          NATURAL ORBITALS IN ATOMIC ORBITAL BASIS
          ----------------------------------------

                      1          2          3          4          5
                    2.0000     2.0000     1.9856     1.9832     1.1665
                     A1         A1         A1         A1         A1  
    1  N  1  S    0.706990   0.707000  -0.169670  -0.172313   0.004097
    2  N  1  S   -0.000211  -0.000233   0.376874   0.387831  -0.009269
    3  N  1  S    0.000950   0.000927   0.385388   0.385972  -0.016846
    4  N  1  X    0.000000   0.000000   0.000000   0.000000   0.000000
    5  N  1  Y    0.000000   0.000000   0.000000   0.000000   0.000000
    6  N  1  Z    0.000285   0.000177  -0.003538   0.000883   0.538655
    7  N  1  X    0.000000   0.000000   0.000000   0.000000   0.000000
    8  N  1  Y    0.000000   0.000000   0.000000   0.000000   0.000000
    9  N  1  Z   -0.000099  -0.000059  -0.000166  -0.004143   0.223003
   10  N  2  S    0.706990  -0.707000  -0.169670   0.172313   0.004097
   11  N  2  S   -0.000211   0.000233   0.376874  -0.387831  -0.009269
   12  N  2  S    0.000950  -0.000927   0.385388  -0.385972  -0.016846
   13  N  2  X    0.000000   0.000000   0.000000   0.000000   0.000000
   14  N  2  Y    0.000000   0.000000   0.000000   0.000000   0.000000
   15  N  2  Z   -0.000285   0.000177   0.003538   0.000883  -0.538655
   16  N  2  X    0.000000   0.000000   0.000000   0.000000   0.000000
   17  N  2  Y    0.000000   0.000000   0.000000   0.000000   0.000000
   18  N  2  Z    0.000099  -0.000059   0.000166  -0.004143  -0.223003

                      6          7          8          9         10
                    1.0336     1.0336     0.9574     0.9574     0.8254
                     B1         B2         B2         B1         A1  
    1  N  1  S    0.000000   0.000000   0.000000   0.000000  -0.006078
    2  N  1  S    0.000000   0.000000   0.000000   0.000000   0.013097
    3  N  1  S    0.000000   0.000000   0.000000   0.000000   0.020747
    4  N  1  X    0.554247   0.000000   0.000000  -0.565973   0.000000
    5  N  1  Y    0.000000   0.554247  -0.565973   0.000000   0.000000
    6  N  1  Z    0.000000   0.000000   0.000000   0.000000   0.585773
    7  N  1  X    0.228409   0.000000   0.000000  -0.226726   0.000000
    8  N  1  Y    0.000000   0.228409  -0.226726   0.000000   0.000000
    9  N  1  Z    0.000000   0.000000   0.000000   0.000000   0.230738
   10  N  2  S    0.000000   0.000000   0.000000   0.000000   0.006078
   11  N  2  S    0.000000   0.000000   0.000000   0.000000  -0.013097
   12  N  2  S    0.000000   0.000000   0.000000   0.000000  -0.020747
   13  N  2  X    0.554247   0.000000   0.000000   0.565973   0.000000
   14  N  2  Y    0.000000   0.554247   0.565973   0.000000   0.000000
   15  N  2  Z    0.000000   0.000000   0.000000   0.000000   0.585773
   16  N  2  X    0.228409   0.000000   0.000000   0.226726   0.000000
   17  N  2  Y    0.000000   0.228409   0.226726   0.000000   0.000000
   18  N  2  Z    0.000000   0.000000   0.000000   0.000000   0.230738

                     11         12         13         14         15
                    0.0125     0.0100     0.0069     0.0065     0.0065
                     A1         A1         A1         B1         B2  
    1  N  1  S   -0.096048  -0.090484  -0.017726   0.000000   0.000000
    2  N  1  S    1.060331   1.078678   0.307083   0.000000   0.000000
    3  N  1  S   -0.999369  -1.058024  -0.365245   0.000000   0.000000
    4  N  1  X    0.000000   0.000000   0.000000  -0.612416   0.000000
    5  N  1  Y    0.000000   0.000000   0.000000   0.000000  -0.612416
    6  N  1  Z    0.147773  -0.173447  -0.612133   0.000000   0.000000
    7  N  1  X    0.000000   0.000000   0.000000   0.760015   0.000000
    8  N  1  Y    0.000000   0.000000   0.000000   0.000000   0.760015
    9  N  1  Z   -0.114757   0.207567   0.683764   0.000000   0.000000
   10  N  2  S   -0.096048   0.090484  -0.017726   0.000000   0.000000
   11  N  2  S    1.060331  -1.078678   0.307083   0.000000   0.000000
   12  N  2  S   -0.999369   1.058024  -0.365245   0.000000   0.000000
   13  N  2  X    0.000000   0.000000   0.000000  -0.612416   0.000000
   14  N  2  Y    0.000000   0.000000   0.000000   0.000000  -0.612416
   15  N  2  Z   -0.147773  -0.173447   0.612133   0.000000   0.000000
   16  N  2  X    0.000000   0.000000   0.000000   0.760015   0.000000
   17  N  2  Y    0.000000   0.000000   0.000000   0.000000   0.760015
   18  N  2  Z    0.114757   0.207567  -0.683764   0.000000   0.000000

                     16         17         18
                    0.0055     0.0055     0.0040
                     B2         B1         A1  
    1  N  1  S    0.000000   0.000000   0.020216
    2  N  1  S    0.000000   0.000000  -0.446605
    3  N  1  S    0.000000   0.000000   0.567300
    4  N  1  X    0.000000   0.620725   0.000000
    5  N  1  Y    0.620725   0.000000   0.000000
    6  N  1  Z    0.000000   0.000000  -0.607022
    7  N  1  X    0.000000  -0.847552   0.000000
    8  N  1  Y   -0.847552   0.000000   0.000000
    9  N  1  Z    0.000000   0.000000   1.039539
   10  N  2  S    0.000000   0.000000  -0.020216
   11  N  2  S    0.000000   0.000000   0.446605
   12  N  2  S    0.000000   0.000000  -0.567300
   13  N  2  X    0.000000  -0.620725   0.000000
   14  N  2  Y   -0.620725   0.000000   0.000000
   15  N  2  Z    0.000000   0.000000  -0.607022
   16  N  2  X    0.000000   0.847552   0.000000
   17  N  2  Y    0.847552   0.000000   0.000000
   18  N  2  Z    0.000000   0.000000   1.039539
 ..... DONE WITH ONE PARTICLE DENSITY MATRIX .....
 CPU     0: STEP CPU TIME=     0.98 TOTAL CPU TIME=      123.5 (    2.1 MIN)
 TOTAL WALL CLOCK TIME=      161.0 SECONDS, CPU UTILIZATION IS  76.75%

     --------------------------------------------------------
     ALDET CI PROPERTIES...FOR THE WAVEFUNCTION OF STATE    1
               USING THE EXPECTATION VALUE DENSITY
     --------------------------------------------------------

          -----------------
          ENERGY COMPONENTS
          -----------------

         WAVEFUNCTION NORMALIZATION =       1.0000000000

                ONE ELECTRON ENERGY =    -165.5405284065
                TWO ELECTRON ENERGY =      47.7412792623
           NUCLEAR REPULSION ENERGY =       8.9412707630
                                      ------------------
                       TOTAL ENERGY =    -108.8579783812

 ELECTRON-ELECTRON POTENTIAL ENERGY =      47.7412792623
  NUCLEUS-ELECTRON POTENTIAL ENERGY =    -274.2457655922
   NUCLEUS-NUCLEUS POTENTIAL ENERGY =       8.9412707630
                                      ------------------
             TOTAL POTENTIAL ENERGY =    -217.5632155669
               TOTAL KINETIC ENERGY =     108.7052371857
                 VIRIAL RATIO (V/T) =       2.0014050951

          ---------------------------------------
          MULLIKEN AND LOWDIN POPULATION ANALYSES
          ---------------------------------------

               ----- POPULATIONS IN EACH AO -----
                             MULLIKEN      LOWDIN
              1  N  1  S      2.00013     1.99630
              2  N  1  S      0.98185     0.98459
              3  N  1  S      1.01238     1.00977
              4  N  1  X      0.75950     0.72049
              5  N  1  Y      0.75950     0.72049
              6  N  1  Z      0.75773     0.71800
              7  N  1  X      0.24196     0.28097
              8  N  1  Y      0.24196     0.28097
              9  N  1  Z      0.24499     0.28842
             10  N  2  S      2.00013     1.99630
             11  N  2  S      0.98185     0.98459
             12  N  2  S      1.01238     1.00977
             13  N  2  X      0.75950     0.72049
             14  N  2  Y      0.75950     0.72049
             15  N  2  Z      0.75773     0.71800
             16  N  2  X      0.24196     0.28097
             17  N  2  Y      0.24196     0.28097
             18  N  2  Z      0.24499     0.28842

          ----- MULLIKEN ATOMIC OVERLAP POPULATIONS -----
          (OFF-DIAGONAL ELEMENTS NEED TO BE MULTIPLIED BY 2)

             1           2

    1    6.9932688
    2    0.0067312   6.9932688

          TOTAL MULLIKEN AND LOWDIN ATOMIC POPULATIONS
       ATOM         MULL.POP.    CHARGE          LOW.POP.     CHARGE
    1 N             7.000000   -0.000000         7.000000   -0.000000
    2 N             7.000000   -0.000000         7.000000   -0.000000

          ---------------------
          ELECTROSTATIC MOMENTS
          ---------------------

 POINT   1           X           Y           Z (BOHR)    CHARGE
                 0.000000    0.000000    2.740103       -0.00 (A.U.)
         DX          DY          DZ         /D/  (DEBYE)
     0.000000    0.000000    0.000000    0.000000
 ...... END OF PROPERTY EVALUATION ......
 CPU     0: STEP CPU TIME=     0.00 TOTAL CPU TIME=      123.5 (    2.1 MIN)
 TOTAL WALL CLOCK TIME=      161.5 SECONDS, CPU UTILIZATION IS  76.51%
             119866889  WORDS OF DYNAMIC MEMORY USED
 EXECUTION OF GAMESS TERMINATED NORMALLY Thu Jan 17 18:21:13 2019
 DDI: 305760 bytes (0.3 MB / 0 MWords) used by master data server.

 ----------------------------------------
 CPU timing information for all processes
 ========================================
 0: 115.204 + 8.480 = 123.684
 1: 113.948 + 9.856 = 123.804
 2: 114.360 + 7.964 = 122.324
 3: 113.964 + 8.496 = 122.460
 4: 115.112 + 9.656 = 124.768
 5: 114.944 + 8.404 = 123.348
 6: 112.812 + 8.892 = 121.704
 7: 114.432 + 8.392 = 122.824
 8: 113.824 + 7.104 = 120.928
 9: 113.508 + 8.708 = 122.216
 10: 114.32 + 7.872 = 121.904
 11: 114.36 + 7.444 = 121.480
 12: 0.368 + 4.856 = 5.224
 13: 0.00 + 0.04 = 0.04
 14: 0.00 + 0.04 = 0.04
 15: 0.04 + 0.00 = 0.04
 16: 0.04 + 0.00 = 0.04
 17: 0.08 + 0.00 = 0.08
 18: 0.04 + 0.04 = 0.08
 19: 0.08 + 0.00 = 0.08
 20: 0.04 + 0.04 = 0.08
 21: 0.04 + 0.04 = 0.08
 22: 0.00 + 0.04 = 0.04
 23: 0.00 + 0.04 = 0.04
 ----------------------------------------
 ddikick.x: exited gracefully.
unset echo
----- accounting info -----
Files used on the master node localhost were:
-rw-rw-r-- 1 maho maho    13429 Jan 17 18:21 ./N2.SV/2.9/N2.SV.fullCI.2.9.gamess.dat
-rw------- 1 maho maho     1813 Jan 17 18:18 ./N2.SV/2.9/N2.SV.fullCI.2.9.gamess.F05
-rw-rw-r-- 1 maho maho   180016 Jan 17 18:18 ./N2.SV/2.9/N2.SV.fullCI.2.9.gamess.F08
-rw-rw-r-- 1 maho maho     1376 Jan 17 18:18 ./N2.SV/2.9/N2.SV.fullCI.2.9.gamess.F09
-rw-rw-r-- 1 maho maho  1865040 Jan 17 18:21 ./N2.SV/2.9/N2.SV.fullCI.2.9.gamess.F10
-rw-rw-r-- 1 maho maho 38216480 Jan 17 18:21 ./N2.SV/2.9/N2.SV.fullCI.2.9.gamess.F12
-rw------- 1 maho maho     1813 Jan 17 18:18 ./N2.SV/2.9/N2.SV.fullCI.2.9.gamess.inp
-rw-rw-r-- 1 maho maho    49144 Jan 17 18:21 ./N2.SV/2.9/N2.SV.fullCI.2.9.gamess.log
ls: No match.
ls: No match.
ls: No match.
Thu Jan 17 18:21:16 JST 2019
0.0u 0.0s 2:44.93 0.0% 0+0k 0+8io 0pf+0w
